# vtk DataFile Version 2.0
sampleSurface
ASCII
DATASET POLYDATA
POINTS 20801 float
2.1 6.93889e-18 0
2.1 0.003125 0.003125
2.1 9.25186e-18 0.00625
2.1 0.00625 0
2.1 0.00625 0.00625
2.1 0.009375 0.003125
2.1 0.003125 0.009375
2.1 0.0125 0
2.1 1.15648e-17 0.0125
2.1 0.009375 0.009375
2.1 0.0125 0.00625
2.1 0.00625 0.0125
2.1 0.015625 0.003125
2.1 0.003125 0.015625
2.1 0.0125 0.0125
2.1 0.009375 0.015625
2.1 0.015625 0.009375
2.1 0.01875 0
2.1 8.09538e-18 0.01875
2.1 0.01875 0.00625
2.1 0.00625 0.01875
2.1 0.015625 0.015625
2.1 0.003125 0.021875
2.1 0.021875 0.003125
2.1 0.0125 0.01875
2.1 0.01875 0.0125
2.1 0.009375 0.021875
2.1 0.021875 0.009375
2.1 0.025 0
2.1 4.62593e-18 0.025
2.1 0.025 0.00625
2.1 0.00625 0.025
2.1 0.01875 0.01875
2.1 0.021875 0.015625
2.1 0.015625 0.021875
2.1 0.025 0.0125
2.1 0.0125 0.025
2.1 0.028125 0.003125
2.1 0.003125 0.028125
2.1 0.009375 0.028125
2.1 0.028125 0.009375
2.1 0.021875 0.021875
2.1 0.03125 0
2.1 0.025 0.01875
2.1 4.62593e-18 0.03125
2.1 0.01875 0.025
2.1 0.03125 0.00625
2.1 0.00625 0.03125
2.1 0.015625 0.028125
2.1 0.028125 0.015625
2.1 0.03125 0.0125
2.1 0.0125 0.03125
2.1 0.003125 0.034375
2.1 0.034375 0.003125
2.1 0.025 0.025
2.1 0.009375 0.034375
2.1 0.034375 0.009375
2.1 0.028125 0.021875
2.1 0.021875 0.028125
2.1 0.03125 0.01875
2.1 0.01875 0.03125
2.1 0.0375 0
2.1 4.62593e-18 0.0375
2.1 0.034375 0.015625
2.1 0.015625 0.034375
2.1 0.0375 0.00625
2.1 0.00625 0.0375
2.1 0.0375 0.0125
2.1 0.0125 0.0375
2.1 0.028125 0.028125
2.1 0.025 0.03125
2.1 0.03125 0.025
2.1 0.040625 0.003125
2.1 0.003125 0.040625
2.1 0.034375 0.021875
2.1 0.021875 0.034375
2.1 0.009375 0.040625
2.1 0.040625 0.009375
2.1 0.0375 0.01875
2.1 0.01875 0.0375
2.1 0.015625 0.040625
2.1 0.040625 0.015625
2.1 0.04375 0
2.1 4.62593e-18 0.04375
2.1 0.04375 0.00625
2.1 0.03125 0.03125
2.1 0.00625 0.04375
2.1 0.034375 0.028125
2.1 0.028125 0.034375
2.1 0.0375 0.025
2.1 0.025 0.0375
2.1 0.04375 0.0125
2.1 0.0125 0.04375
2.1 0.040625 0.021875
2.1 0.021875 0.040625
2.1 0.003125 0.046875
2.1 0.046875 0.003125
2.1 0.04375 0.01875
2.1 0.01875 0.04375
2.1 0.009375 0.046875
2.1 0.046875 0.009375
2.1 0.034375 0.034375
2.1 0.0375 0.03125
2.1 0.03125 0.0375
2.1 0.040625 0.028125
2.1 0.028125 0.040625
2.1 0.046875 0.015625
2.1 0.015625 0.046875
2.1 0.05 0
2.1 4.62593e-18 0.05
2.1 0.05 0.00625
2.1 0.04375 0.025
2.1 0.025 0.04375
2.1 0.00625 0.05
2.1 0.05 0.0125
2.1 0.0125 0.05
2.1 0.046875 0.021875
2.1 0.021875 0.046875
2.1 0.0375 0.0375
2.1 0.040625 0.034375
2.1 0.034375 0.040625
2.1 0.053125 0.003125
2.1 0.003125 0.053125
2.1 0.05 0.01875
2.1 0.01875 0.05
2.1 0.04375 0.03125
2.1 0.03125 0.04375
2.1 0.009375 0.053125
2.1 0.053125 0.009375
2.1 0.046875 0.028125
2.1 0.028125 0.046875
2.1 0.015625 0.053125
2.1 0.053125 0.015625
2.1 0.05 0.025
2.1 0.025 0.05
2.1 0.05625 0
2.1 6.93889e-18 0.05625
2.1 0.05625 0.00625
2.1 0.00625 0.05625
2.1 0.040625 0.040625
2.1 0.053125 0.021875
2.1 0.021875 0.053125
2.1 0.05625 0.0125
2.1 0.0375 0.04375
2.1 0.04375 0.0375
2.1 0.0125 0.05625
2.1 0.046875 0.034375
2.1 0.034375 0.046875
2.1 0.05 0.03125
2.1 0.03125 0.05
2.1 0.05625 0.01875
2.1 0.01875 0.05625
2.1 0.003125 0.059375
2.1 0.059375 0.003125
2.1 0.009375 0.059375
2.1 0.059375 0.009375
2.1 0.053125 0.028125
2.1 0.028125 0.053125
2.1 0.059375 0.015625
2.1 0.015625 0.059375
2.1 0.05625 0.025
2.1 0.025 0.05625
2.1 0.04375 0.04375
2.1 0.046875 0.040625
2.1 0.040625 0.046875
2.1 0.0625 0
2.1 0.05 0.0375
2.1 0.0375 0.05
2.1 9.25186e-18 0.0625
2.1 0.0625 0.00625
2.1 0.00625 0.0625
2.1 0.059375 0.021875
2.1 0.021875 0.059375
2.1 0.053125 0.034375
2.1 0.034375 0.053125
2.1 0.0625 0.0125
2.1 0.0125 0.0625
2.1 0.05625 0.03125
2.1 0.03125 0.05625
2.1 0.0625 0.01875
2.1 0.01875 0.0625
2.1 0.065625 0.003125
2.1 0.003125 0.065625
2.1 0.059375 0.028125
2.1 0.028125 0.059375
2.1 0.009375 0.065625
2.1 0.065625 0.009375
2.1 0.046875 0.046875
2.1 0.05 0.04375
2.1 0.04375 0.05
2.1 0.053125 0.040625
2.1 0.040625 0.053125
2.1 0.0625 0.025
2.1 0.025 0.0625
2.1 0.065625 0.015625
2.1 0.015625 0.065625
2.1 0.05625 0.0375
2.1 0.0375 0.05625
2.1 0.059375 0.034375
2.1 0.034375 0.059375
2.1 0.06875 0
2.1 6.93889e-18 0.06875
2.1 0.06875 0.00625
2.1 0.00625 0.06875
2.1 0.065625 0.021875
2.1 0.021875 0.065625
2.1 0.06875 0.0125
2.1 0.0625 0.03125
2.1 0.0125 0.06875
2.1 0.03125 0.0625
2.1 0.05 0.05
2.1 0.053125 0.046875
2.1 0.046875 0.053125
2.1 0.06875 0.01875
2.1 0.05625 0.04375
2.1 0.04375 0.05625
2.1 0.01875 0.06875
2.1 0.065625 0.028125
2.1 0.028125 0.065625
2.1 0.003125 0.071875
2.1 0.059375 0.040625
2.1 0.040625 0.059375
2.1 0.071875 0.003125
2.1 0.009375 0.071875
2.1 0.071875 0.009375
2.1 0.0625 0.0375
2.1 0.0375 0.0625
2.1 0.06875 0.025
2.1 0.025 0.06875
2.1 0.071875 0.015625
2.1 0.015625 0.071875
2.1 0.065625 0.034375
2.1 0.034375 0.065625
2.1 0.075 0
2.1 4.62593e-18 0.075
2.1 0.071875 0.021875
2.1 0.021875 0.071875
2.1 0.053125 0.053125
2.1 0.075 0.00625
2.1 0.05 0.05625
2.1 0.05625 0.05
2.1 0.00625 0.075
2.1 0.06875 0.03125
2.1 0.03125 0.06875
2.1 0.059375 0.046875
2.1 0.046875 0.059375
2.1 0.075 0.0125
2.1 0.0125 0.075
2.1 0.0625 0.04375
2.1 0.04375 0.0625
2.1 0.065625 0.040625
2.1 0.040625 0.065625
2.1 0.071875 0.028125
2.1 0.028125 0.071875
2.1 0.075 0.01875
2.1 0.01875 0.075
2.1 0.078125 0.003125
2.1 0.003125 0.078125
2.1 0.06875 0.0375
2.1 0.0375 0.06875
2.1 0.009375 0.078125
2.1 0.078125 0.009375
2.1 0.075 0.025
2.1 0.025 0.075
2.1 0.05625 0.05625
2.1 0.078125 0.015625
2.1 0.015625 0.078125
2.1 0.071875 0.034375
2.1 0.059375 0.053125
2.1 0.053125 0.059375
2.1 0.034375 0.071875
2.1 0.0625 0.05
2.1 0.05 0.0625
2.1 0.065625 0.046875
2.1 0.046875 0.065625
2.1 0.078125 0.021875
2.1 0.021875 0.078125
2.1 0.08125 0
2.1 0.075 0.03125
2.1 3.46945e-18 0.08125
2.1 0.03125 0.075
2.1 0.08125 0.00625
2.1 0.06875 0.04375
2.1 0.04375 0.06875
2.1 0.00625 0.08125
2.1 0.08125 0.0125
2.1 0.0125 0.08125
2.1 0.071875 0.040625
2.1 0.040625 0.071875
2.1 0.078125 0.028125
2.1 0.028125 0.078125
2.1 0.08125 0.01875
2.1 0.01875 0.08125
2.1 0.075 0.0375
2.1 0.0375 0.075
2.1 0.059375 0.059375
2.1 0.0625 0.05625
2.1 0.05625 0.0625
2.1 0.065625 0.053125
2.1 0.053125 0.065625
2.1 0.003125 0.084375
2.1 0.084375 0.003125
2.1 0.009375 0.084375
2.1 0.084375 0.009375
2.1 0.08125 0.025
2.1 0.06875 0.05
2.1 0.05 0.06875
2.1 0.025 0.08125
2.1 0.078125 0.034375
2.1 0.034375 0.078125
2.1 0.084375 0.015625
2.1 0.071875 0.046875
2.1 0.046875 0.071875
2.1 0.015625 0.084375
2.1 0.075 0.04375
2.1 0.04375 0.075
2.1 0.08125 0.03125
2.1 0.03125 0.08125
2.1 0.084375 0.021875
2.1 0.021875 0.084375
2.1 0.0875 0
2.1 2.31296e-18 0.0875
2.1 0.0875 0.00625
2.1 0.00625 0.0875
2.1 0.078125 0.040625
2.1 0.040625 0.078125
2.1 0.0875 0.0125
2.1 0.0625 0.0625
2.1 0.0125 0.0875
2.1 0.065625 0.059375
2.1 0.059375 0.065625
2.1 0.06875 0.05625
2.1 0.05625 0.06875
2.1 0.084375 0.028125
2.1 0.028125 0.084375
2.1 0.071875 0.053125
2.1 0.053125 0.071875
2.1 0.0875 0.01875
2.1 0.08125 0.0375
2.1 0.0375 0.08125
2.1 0.01875 0.0875
2.1 0.075 0.05
2.1 0.05 0.075
2.1 0.090625 0.003125
2.1 0.003125 0.090625
2.1 0.0875 0.025
2.1 0.025 0.0875
2.1 0.009375 0.090625
2.1 0.090625 0.009375
2.1 0.084375 0.034375
2.1 0.078125 0.046875
2.1 0.046875 0.078125
2.1 0.034375 0.084375
2.1 0.090625 0.015625
2.1 0.015625 0.090625
2.1 0.08125 0.04375
2.1 0.04375 0.08125
2.1 0.065625 0.065625
2.1 0.0875 0.03125
2.1 0.0625 0.06875
2.1 0.06875 0.0625
2.1 0.03125 0.0875
2.1 0.071875 0.059375
2.1 0.059375 0.071875
2.1 0.021875 0.090625
2.1 0.090625 0.021875
2.1 0.084375 0.040625
2.1 0.040625 0.084375
2.1 0.09375 0
2.1 0.075 0.05625
2.1 0.05625 0.075
2.1 1.15648e-18 0.09375
2.1 0.09375 0.00625
2.1 0.00625 0.09375
2.1 0.078125 0.053125
2.1 0.053125 0.078125
2.1 0.09375 0.0125
2.1 0.0125 0.09375
2.1 0.090625 0.028125
2.1 0.028125 0.090625
2.1 0.0875 0.0375
2.1 0.0375 0.0875
2.1 0.08125 0.05
2.1 0.05 0.08125
2.1 0.09375 0.01875
2.1 0.01875 0.09375
2.1 0.084375 0.046875
2.1 0.046875 0.084375
2.1 0.003125 0.096875
2.1 0.096875 0.003125
2.1 0.090625 0.034375
2.1 0.034375 0.090625
2.1 0.09375 0.025
2.1 0.025 0.09375
2.1 0.06875 0.06875
2.1 0.009375 0.096875
2.1 0.096875 0.009375
2.1 0.071875 0.065625
2.1 0.065625 0.071875
2.1 0.075 0.0625
2.1 0.0625 0.075
2.1 0.0875 0.04375
2.1 0.04375 0.0875
2.1 0.078125 0.059375
2.1 0.096875 0.015625
2.1 0.059375 0.078125
2.1 0.015625 0.096875
2.1 0.09375 0.03125
2.1 0.08125 0.05625
2.1 0.05625 0.08125
2.1 0.03125 0.09375
2.1 0.090625 0.040625
2.1 0.040625 0.090625
2.1 0.096875 0.021875
2.1 0.021875 0.096875
2.1 0.084375 0.053125
2.1 0.053125 0.084375
2.1 0 0.1
2.1 0.1 0
2.1 0.00625 0.1
2.1 0.1 0.00625
2.1 0.0125 0.1
2.1 0.1 0.0125
2.1 0.0875 0.05
2.1 0.05 0.0875
2.1 0.096875 0.028125
2.1 0.028125 0.096875
2.1 0.09375 0.0375
2.1 0.0375 0.09375
2.1 0.071875 0.071875
2.1 0.01875 0.1
2.1 0.1 0.01875
2.1 0.075 0.06875
2.1 0.06875 0.075
2.1 0.078125 0.065625
2.1 0.065625 0.078125
2.1 0.090625 0.046875
2.1 0.046875 0.090625
2.1 0.08125 0.0625
2.1 0.0625 0.08125
2.1 0.034375 0.096875
2.1 0.096875 0.034375
2.1 0.025 0.1
2.1 0.1 0.025
2.1 0.084375 0.059375
2.1 0.059375 0.084375
2.1 0.003125 0.103125
2.1 0.09375 0.04375
2.1 0.04375 0.09375
2.1 0.009375 0.103125
2.1 0.0875 0.05625
2.1 0.05625 0.0875
2.1 0.015625 0.103125
2.1 0.03125 0.1
2.1 0.1 0.03125
2.1 0.096875 0.040625
2.1 0.040625 0.096875
2.1 0.090625 0.053125
2.1 0.053125 0.090625
2.1 0.021875 0.103125
2.1 0.075 0.075
2.1 0.078125 0.071875
2.1 0.071875 0.078125
2.1 0.09375 0.05
2.1 0.05 0.09375
2.1 3.46945e-18 0.10625
2.1 0.08125 0.06875
2.1 0.06875 0.08125
2.1 0.00625 0.10625
2.1 0.0375 0.1
2.1 0.1 0.0375
2.1 0.084375 0.065625
2.1 0.065625 0.084375
2.1 0.028125 0.103125
2.1 0.0125 0.10625
2.1 0.0875 0.0625
2.1 0.0625 0.0875
2.1 0.096875 0.046875
2.1 0.046875 0.096875
2.1 0.01875 0.10625
2.1 0.090625 0.059375
2.1 0.059375 0.090625
2.1 0.034375 0.103125
2.1 0.04375 0.1
2.1 0.1 0.04375
2.1 0.025 0.10625
2.1 0.09375 0.05625
2.1 0.05625 0.09375
2.1 0.003125 0.109375
2.1 0.009375 0.109375
2.1 0.078125 0.078125
2.1 0.096875 0.053125
2.1 0.053125 0.096875
2.1 0.015625 0.109375
[...]
POINT_DATA 20801
FIELD attributes 1
k 1 20801 float
0 0.000136711 0 0 0.000924658 0.000560687 0.000806802 0 0 0.00219443
0.00171992 0.00166068 0.00138643 0.00149362 0.00224527 0.00214785 0.00273814 0 0 0.00242515
0.00181824 0.00190066 0.00184948 0.00264619 0.00178098 0.00229882 0.00178199 0.00292985 0 0
0.00311811 0.00178782 0.001509 0.00162662 0.0012934 0.00233331 0.0014549 0.00367843 0.00200863 0.00151119
0.00321797 0.0012153 0 0.00140365 0 0.00123533 0.00361584 0.00173873 0.00123301 0.00155878
0.0024257 0.00136445 0.00199999 0.00419086 0.00120142 0.00143512 0.00337613 0.00121389 0.00119959 0.0013804
0.00122325 0 0 0.00154991 0.00127848 0.00389489 0.0016994 0.00254073 0.00133611 0.00117689
0.00118138 0.00120065 0.00441916 0.00201706 0.00119902 0.0011819 0.00134541 0.0035934 0.00141572 0.00121332
0.00128543 0.00164348 0 0 0.00404345 0.00120417 0.00167159 0.0012128 0.00116716 0.00122871
0.00114202 0.00270981 0.00129113 0.00127048 0.00110746 0.00201857 0.00442593 0.00153488 0.00115617 0.00130532
0.00373532 0.00125984 0.0012687 0.00122044 0.00123253 0.00111155 0.00186703 0.00122837 0 0
0.00414875 0.00128024 0.00107142 0.00164628 0.00295028 0.00125667 0.00135854 0.00100342 0.00137273 0.00136963
0.00134321 0.00450475 0.00197948 0.00175628 0.00110071 0.00133275 0.00122538 0.00128178 0.00392901 0.0012594
0.00106324 0.00121123 0.00226976 0.00136967 0.00101023 0 0 0.00435139 0.00160365 0.00151825
0.00152979 0.000959822 0.003296 0.00145122 0.00151606 0.00125204 0.00146943 0.00138351 0.00140206 0.00120486
0.00213387 0.00112975 0.00193766 0.00482698 0.00121567 0.00414482 0.00133096 0.00101445 0.00284041 0.00129946
0.00157503 0.00101097 0.00163291 0.00170691 0.00155989 0 0.00165168 0.00145626 0 0.00452687
0.0014988 0.0018955 0.00104849 0.00154845 0.00135823 0.00340836 0.00121774 0.00150905 0.00117094 0.00244451
0.00122225 0.00545571 0.00175901 0.00154386 0.00102113 0.00108285 0.00367999 0.00174659 0.0018128 0.00163251
0.00188193 0.0015234 0.00177913 0.00111943 0.00296823 0.00127298 0.00175648 0.00141104 0.00161293 0.00128995
0 0 0.00439174 0.00128816 0.00207389 0.00126806 0.00292143 0.00157578 0.0011266 0.00117215
0.00179453 0.00191577 0.00170016 0.00233525 0.00196353 0.00158723 0.00125977 0.00160327 0.00114002 0.00137242
0.0019826 0.0014726 0.00573537 0.000938369 0.00269589 0.00177154 0.00135498 0.00178975 0.00121975 0.00234161
0.00121221 0.00154306 0.00123749 0 0 0.00195728 0.00128586 0.00181561 0.00399876 0.00173676
0.00191872 0.00111673 0.00147298 0.00119688 0.00207381 0.00165275 0.00206626 0.00108827 0.00206063 0.0015499
0.00194756 0.00141989 0.00152456 0.00118507 0.00177569 0.00130333 0.00572912 0.0012466 0.00152006 0.00133172
0.000909515 0.00183467 0.00154719 0.00131478 0.00181704 0.00139288 0.001293 0.00122102 0.00186968 0.00177853
0.00122494 0.00199179 0.00174358 0.00223854 0.00165434 0.00141099 0.00142226 0 0.00127395 0
0.0012924 0.00364684 0.00195252 0.00157644 0.00112782 0.00143744 0.00116165 0.00136858 0.00144457 0.00129593
0.00136595 0.00124214 0.00140596 0.00117533 0.00142839 0.00180434 0.00174465 0.00186404 0.00178513 0.0018887
0.00132852 0.00554803 0.00102664 0.00147553 0.00125101 0.00202963 0.00187206 0.00144977 0.00105429 0.00139365
0.00104669 0.00225539 0.00178698 0.00141744 0.00162735 0.00170628 0.00114549 0.00147907 0.00111801 0.00149113
0 0 0.00353641 0.00135228 0.00105743 0.00165038 0.00138139 0.00176491 0.00123722 0.00151945
0.0019846 0.00158944 0.00209614 0.00117908 0.00151975 0.00183947 0.00215821 0.0011917 0.00102502 0.00163045
0.00141872 0.00197472 0.00204415 0.00543391 0.00192374 0.00122294 0.00144767 0.00113021 0.00168818 0.00105264
0.00182801 0.00194318 0.00163693 0.00131517 0.00137458 0.00129249 0.00185401 0.00175125 0.00116768 0.00208754
0.00141954 0.00149299 0.00121372 0.00235303 0.00139174 0.00128692 0.000935694 0.00184083 0 0.00153636
0.00241777 0 0.00376784 0.00186055 0.00197599 0.00228824 0.00164411 0.0012676 0.00130773 0.00138804
0.00104481 0.00159169 0.00173942 0.0021113 0.00150656 0.00121871 0.00134883 0.00198165 0.00292154 0.00602122
0.00113128 0.00142723 0.00154749 0.00118736 0.00163248 0.00146671 0.00192806 0.00119374 0.00226127 0.00113751
0.00264579 0.00118737 0.00169868 0.00111626 0.00164505 0.0028716 0.0010989 0.00151886 0.00150926 0.00255291
0.00116667 0.00105963 0.00146175 0.0017791 0.00100964 0.00180486 0.00223213 0 0.00301061 0.00219625
0.00397464 0.00132656 0.00178656 0.0015239 0.00185204 0.00181621 0.000960019 0.00148502 0.00117897 0.00132367
0.000981937 0.00171208 0.0011491 0.00209178 0.00102632 0.00309726 0.00140533 0.00151051 0.00107679 0.00309424
0.000891392 0.00182023 0.00085626 0.00179766 0.00113994 0.00281968 0.00268613 0.00161015 0.00125273 0.00171063
0.00139914 0.0022657 0.00102998 0.000789745 0.00181822 0.00192894 0.000935492 0.00153659 0.00168387 0.000789233
0.00130838 0.00105268 0.0016849 0.00173991 0.00140526 0 0.00103361 0.00282205 0.00218872 0.000783009
0.00187459 0.00102464 0.00358843 0.000666151 0.0013999 0.00107618 0.00303011 0.00204672 0.00110318 0.000958902
0.00111517 0.00232711 0.000641419 0.000856195 0.00198783 0.00076997 0.0015409 0.00181406 0.002627 0.0017311
0.00117228 0.00197101 0.00132351 0.0011279 0.00178068 0.00108721 0.000691644 0.00291762 0.000663732 0.00103081
0.0010408 0.00344329 0.000888499 0.00100507 0.00200886 0.00102496 0.0033852 0 0.00124109 0.00266684
0.000694894 0.00235968 0.000735996 0.00176578 0.000722378 0.00154082 0.00192176 0.00139641 0.00072301 0.00134591
0.00175591 0.001197 0.000760183 0.00109308 0.00134793 0.00110542 0.00247115 0.00120671 0.00279335 0.00108277
0.00388189 0.00228727 0.000871213 0.00114637 0.00357795 0.00191687 0.000751414 0.00111565 0.00128341 0.00303327
0.000885391 0.00165238 0.00220306 0.00141212 0.00109754 0 0.00268192 0.00154996 0.00090321 0.00126718
0.00117469 0.00273307 0.00120615 0.00137896 0.00121502 0.00173716 0.00116847 0.00300602 0.00243122 0.00114928
0.00119435 0.00401142 0.00145365 0.00118213 0.00338149 0.00211337 0.00123888 0.00104476 0.00217596 0.00259001
0.00347111 0.00146208 0.00177173 0.00325703 0.00135865 0.00193318 0.00131231 0.00134181 0.00125608 0.00289858
0.00124495 0.00168258 0.00239363 0.00141397 0.00118172 0.00157732 0.00161181 0.00327762 0 0.00118804
0.00235256 0.00291621 0.00365936 0.00389128 0.00154117 0.00319766 0.00163263 0.00315562 0.00173074 0.00187482
0.00256841 0.00246155 0.00147665 0.00188691 0.00140433 0.00134704 0.00124127 0.00134348 0.00413087 0.00166281
0.00201944 0.00199784 0.00173811 0.00199607 0.00121149 0.00377843 0.00281416 0.00183113 0.00285661 0.00332388
0.00169446 0.00179382 0.00367966 0.00216588 0 0.00176262 0.00394839 0.00294154 0.00438309 0.0016791
0.00143278 0.00348238 0.00132845 0.00154113 0.0017351 0.00147364 0.00128486 0.0023711 0.001672 0.0014401
0.00257239 0.0021679 0.00204133 0.00164918 0.0044677 0.00291042 0.00164599 0.00530809 0.00208443 0.0031297
0.00431499 0.00167253 0.00325385 0.00297948 0.00161057 0.0018298 0.0013849 0.00147832 0.00160204 0.00135667
0.0027435 0.00156986 0.00228761 0 0.00624217 0.00153041 0.0047842 0.0015069 0.00167045 0.00229054
0.00214912 0.00150755 0.00328637 0.00215294 0.00267487 0.00190506 0.00244463 0.00178581 0.00281669 0.00156898
0.00904439 0.00614847 0.00219174 0.00155607 0.00140115 0.00336522 0.00305851 0.0014174 0.00150798 0.00160477
0.00163624 0.00248577 0.0020829 0.0015636 0.00251877 0.00153194 0.00151958 0.00202566 0 0.00199058
0.00784708 0.00210109 0.00416658 0.00182712 0.00152157 0.00227955 0.00230459 0.00258075 0.0017654 0.00249213
0.00210605 0.00142864 0.00143988 0.00164269 0.00209207 0.00152869 0.00162314 0.00154258 0.0114499 0.00262494
0.00213089 0.00474552 0.00157111 0.00240711 0.00219132 0.00148832 0.00179435 0.0020649 0.00226093 0.00156058
0.00179951 0.00186185 0.00184787 0 0.0020055 0.00796682 0.00203405 0.00161861 0.0032588 0.00144342
0.00144696 0.00234544 0.00165069 0.00236579 0.00215087 0.00155314 0.00165339 0.00229383 0.00175927 0.0021774
0.00230163 0.00155393 0.00155955 0.0122109 0.00249483 0.00346087 0.00142468 0.00185779 0.00242171 0.00194816
0.00160664 0.00164121 0.00272165 0.00256944 0.00163876 0.00146801 0.00179564 0.00269311 0.00148906 0.00167597
0.00158723 0 0.00244959 0.00785156 0.00183492 0.00158285 0.00303029 0.00164933 0.0030929 0.00264439
0.00149601 0.00175314 0.00195307 0.0028126 0.00314662 0.00157244 0.00133902 0.00162773 0.00306637 0.0122304
0.00350401 0.00151817 0.0015231 0.00273458 0.00240193 0.00165323 0.00155714 0.0033171 0.0016135 0.00156065
0.00285184 0.00160951 0.00313601 0.00157102 0.00178619 0.00161451 0.00316941 0.00155305 0 0.00774728
0.00142758 0.00310033 0.00334344 0.00155836 0.002813 0.00132453 0.00254459 0.00157833 0.00302642 0.00368543
0.00153073 0.00160884 0.00146766 0.00324402 0.00166055 0.0118363 0.00341836 0.00196989 0.00344364 0.00274435
0.00153305 0.00162834 0.00150079 0.00344703 0.00292122 0.00147573 0.001547 0.00319662 0.00254658 0.00142043
0.0016934 0.00364832 0 0.00741887 0.00150313 0.00329999 0.00304746 0.00139955 0.0028547 0.00173329
0.00354983 0.00196844 0.00345924 0.00153056 0.00312205 0.00163065 0.00180604 0.0016882 0.00325998 0.00159344
0.0110585 0.00317115 0.00336227 0.00400498 0.00172603 0.00148189 0.00266486 0.00334336 0.00308836 0.00172896
0.00153127 0.00420412 0.00289835 0.00328202 0.00367921 0.0015962 0.00179264 0 0.00700899 0.00189759
0.00326128 0.00287562 0.00198913 0.00396547 0.0029271 0.00410376 0.00179831 0.00281528 0.00335293 0.00354761
0.00185183 0.00202663 0.00379631 0.0042407 0.00164744 0.00393346 0.01057 0.00389967 0.0030452 0.00243016
0.00361845 0.00273072 0.00178073 0.00352502 0.00430626 0.00417319 0.00213899 0.00429505 0.00197696 0.00351595
0.003809 0.00228885 0 0.00678931 0.0043469 0.00240597 0.00258781 0.00448693 0.00376309 0.00214543
0.00389338 0.00266851 0.00351267 0.00372837 0.0032946 0.00190233 0.00403686 0.00468303 0.00430689 0.00329852
0.0107326 0.00202378 0.00280949 0.00326293 0.00206639 0.00486332 0.00251598 0.00265245 0.00413903 0.0035479
0.00232568 0.00352416 0.00436484 0.00274311 0.00444095 0.00241243 0 0.00564924 0.00233847 0.00687763
0.00380636 0.00242604 0.00393463 0.00393592 0.00225076 0.00189016 0.00242395 0.00594447 0.00300984 0.00390392
0.00395595 0.00178986 0.00426054 0.00470369 0.00335298 0.0111253 0.00278071 0.00284317 0.00565916 0.00198513
0.00160551 0.00401786 0.00281831 0.00229907 0.00419357 0.00395153 0.0060487 0.00264688 0.00261897 0.00206832
0.00406787 0.00430511 0 0.00731201 0.00417647 0.00534903 0.00291208 0.00133811 0.00351227 0.00254366
0.00673784 0.0026356 0.0020688 0.00424126 0.00463696 0.0025225 0.00425225 0.00301265 0.0068088 0.0113534
0.00392614 0.00293417 0.0022267 0.00409869 0.00289387 0.00418959 0.00569007 0.00455716 0.00299657 0.00207862
0.00534955 0.00417022 0.00259988 0.00459633 0.00408645 0.00239742 0.00249874 0 0 0.00590315
0 0.00717667 0 0.00498804 0 0.00415458 0 0 0.00351828 0
0.00285307 0.0039234 0.00228947 0 0.00289847 0 0.00385292 0.005566 0.00433714 0.00499849
0 0.00227621 0 0.00235224 0.00524641 0.00813068 0.00665414 0.00115318 0.00483924 0.00529643
0.00110357 0 0.00220729 0 0.00471196 0.00450187 0.00478422 0.00369445 0.00122488 0.00611526
0.00379465 0.00492003 0.00368081 0.00138139 0.00480666 0 0.00305055 0 0.00231663 0.00492902
0.00164152 0.0051156 0.00380189 0.00586233 0.0041089 0.00467743 0.00168958 0.0019442 0 0.00450502
0 0.00785965 0 0.00686965 0.00698071 0.00134368 0.00592455 0.00531174 0.00178832 0.00517723
0.00383279 0.00568549 0.0039862 0.00184148 0.00178776 0.00429411 0.00223541 0.00453626 0.0032819 0
0.00555454 0 0.00561391 0.00254335 0.00182101 0.00531334 0.00397593 0.00488328 0.0025629 0.00226242
0.00549113 0.0016673 0.00183102 0.00858106 0.00807273 0.00074055 0 0.00553471 0 0.00740414
0.00312394 0.00642301 0.00237742 0.00550802 0.00525972 0.00159582 0.00193609 0.00434343 0.00374944 0.00667061
0.00502563 0.00220893 0.00244738 0.00325442 0.00636711 0.00273651 0.00231226 0.00493946 0.00214275 0.00202737
0.00546365 0.00623948 0.00143946 0.00194888 0 0.00435752 0 0.0035411 0.00589715 0.00206506
0.00220032 0.0061186 0.00122353 0.00178949 0.00456704 0.00338767 0.00206996 0.00630929 0.00572641 0
0.00350684 0.00625527 0.00565137 0.00183744 0.00582004 0.00447777 0.00242706 0.00594876 0.00168242 0.00177528
0.00543174 0.00293557 0.00202493 0.00349357 0.00584309 0.0019166 0 0.00282927 0 0.00418724
0.00505915 0.00206634 0.00613949 0.00524961 0.00162929 0.00167192 0.0018252 0.00553905 0.00253794 0.00183638
0.00516794 0.00117177 0.0015048 0.00385492 0.00358334 0.00392678 0.00181332 0.00387223 0.00597768 0.00197033
0.00428907 0.00429432 0.00138156 0.0050691 0.00146798 0.00147869 0.00474158 0.00382067 0.00285024 0
0.00185859 0 0.00500375 0.00410641 0.00197212 0.00264178 0.00446382 0.00203321 0.00185525 0.00422541
0.00133836 0.00130685 0.00487753 0.00222912 0.00148793 0.00372361 0.00509075 0.00176779 0.00100282 0.00416643
0.0011197 0.00361667 0.00206604 0.00445465 0.00588963 0.00201924 0.00177306 0.00405039 0 0.00155023
0.00460887 0.00336038 0.00153062 0 0.00414727 0.00102128 0.00116112 0.00283957 0 0.00308056
0.00262524 0.00263899 0.00322139 0.00209463 0.00220632 0.00194472 0.0019613 0.00406177 0.00118887 0.00628085
0.00188042 0.00399959 0.00369977 0.00309023 0.00153325 0.0031081 0.0014068 0.00141113 0.00435021 0.00511136
0.00161581 0.0036588 0.00134281 0.00181005 0.0030616 0.00102426 0.00109871 0.00396053 0.00115117 0.00275141
0 0.00155201 0 0.00308798 0.00102788 0.00108452 0.00381793 0.00431227 0.00146079 0.00412721
0.00629156 0.00165184 0.00363832 0.00163821 0.00134732 0.00146647 0.00130843 0.00367618 0.00312271 0.00145525
0.0011716 0.00181986 0.00404577 0.00393215 0.0010828 0.00264799 0.00116282 0.00369471 0.00117766 0.00186032
0.000833285 0.00129386 0.00193719 0.00188284 0.000813778 0.0010106 0.00310589 0.00228763 0.0011842 0.00397104
0.00527141 0.0015054 0.00378112 0.00108584 0.00205583 0 0.00158757 0 0.00401028 0.00640363
0.00130907 0.00197171 0.000942078 0.000957692 0.00341706 0.00113426 0.0012757 0.00307175 0.0037119 0.00113885
0.00206652 0.00114535 0.00109956 0.0012274 0 0.00206348 0.00373881 0.00121383 0.00137735 0.00106809
0.00314547 0.00391135 0.00291334 0.00149249 0.000874933 0.00187378 0.00118833 0.00659215 0.00139865 0.00404431
0.00221526 0.00170966 0.00123684 0.00349666 0.00108817 0.00072032 0.00154686 0.00082092 0.00107723 0.00315163
0.0058703 0.00116301 0.00164272 0.00102029 0.000904303 0 0 0.00306931 0.00107255 0.00135227
0.00274474 0.00218599 0.00115993 0.00176296 0.00137612 0.000959092 0.00402232 0.00390036 0.00128174 0.00378241
0.00329275 0.00679461 0.00135118 0.00123112 0.000837424 0.00382435 0.00209047 0.00189157 0.00179115 0.00118147
0.00281807 0.00104374 0.000928403 0.00220834 0.00530569 0.00109096 0.00108149 0.000635225 0.00384104 0.00113209
0.000837395 0.00241666 0.00074625 0.0011577 0.00113661 0.00128659 0.000890365 0.000867835 0.00280247 0.00194256
0.00259003 0.00109207 0.00128398 0.0014928 0.00335488 0.00493982 0.00119194 0.00402403 0.00138488 0.000924965
0 0 0.00245577 0.00772613 0.00109866 0.00333614 0.000925059 0.000597808 0.00143494 0.00142973
0.000781089 0.00190866 0.00478701 0.00116617 0.00396353 0.00202566 0.00158388 0.000970313 0.00198211 0.00194276
0.000998026 0.000773185 0.00334349 0.00230059 0.00113549 0 0.000957904 0.0011052 0.00105956 0.0031574
0.00266065 0.00645654 0.00111808 0.00382781 0.000875845 0.00061857 0.00106721 0.000898281 0.00179726 0.00232746
0.0017006 0.00139147 0.00192683 0.0070885 0.00105799 0.00110487 0.000921631 0.000997331 0.00274812 0.00152602
0.00253033 0.000902066 0.000559126 0 0 0.00125982 0.00137687 0.000808485 0.00166838 0.00357826
0.00134767 0.00269224 0.00281024 0.000969294 0.00321297 0.00102315 0.0014664 0.00206541 0.000825645 0.000668562
0.00104406 0.00162105 0.00200224 0.00668886 0.00101489 0.0012922 0.00421048 0.003202 0.000807818 0.000417119
0.00751936 0.00157195 0.00107559 0.00163239 0.00268902 0.00109851 0.00115396 0.00388556 0.00125332 0.00110377
0.00248633 0.0010438 0.001759 0.000936022 0.000685853 0.000935235 0.000905706 0.00114945 0.00291074 0.00133174
0.00263536 0.00110686 0.000655618 0.00204651 0.00401629 0.00089628 0.00167487 0.00382321 0.00141445 0.00103996
0.0011442 0.000835426 0.00286037 0.000773463 0.000465095 0.00147126 0.000976197 0.00780283 0 0
0.00128302 0.00203796 0.000749592 0.00102681 0.00158355 0.000901732 0.00207557 0.000410974 0.00162695 0.00596473
0.00137675 0.0045959 0.00156895 0.00280663 0.000865183 0.000773874 0.00203607 0.00170066 0.00068764 0.00142127
0.00476992 0.0023647 0.00072503 0.000866603 0.000475096 0.00115477 0 0.00141286 0.000996874 0.00125497
0.00317775 0.000808797 0.000895277 0.00113895 0.00186261 0.00167614 0.0036399 0.00123065 0.00331196 0.00230072
0.00155014 0.000812086 0.00681449 0.00107581 0.000373253 0.0011826 0.00089639 0.00111884 0.0010593 0.00108396
0.0016935 0.000862044 0.0013137 0.00165439 0.00574723 0.001688 0.000515196 0.00202846 0.0014119 0.00188538
0.00106518 0.000631143 0 0.0019407 0.0007965 0.000505693 0 0.0014414 0.0051401 0.00138156
0.00259915 0.00076982 0.000825498 0.00204697 0.000685159 0.000349594 0.00542756 0.00114697 0.00161308 0.00701407
0.00139572 0.00147879 0.0015785 0.0034405 0.000866001 0.00102845 0.00172026 0.000877684 0.00040036 0.00125785
0.000953934 0.00377098 0.000835806 0.00140493 0.00256813 0.000857063 0.00114141 0.000766267 0.00124651 0.000494503
0.00140478 0.00402011 0.00147165 0.00132268 0.00277936 0.000642557 0.0017551 0.000602196 0.000388149 0.00163055
0.00453687 0.00127967 0.000844098 0.00128404 0.00100581 0.00113313 0.00154426 0.00492171 0.000649123 0.000855729
0.000853636 0.00187833 0.000315326 0.00230778 0.00255608 0.00116875 0.00150783 0.000857353 0 0
0.00166598 0.00543814 0.00159539 0.00150551 0.00324424 0.000698463 0.00124106 0.00118807 0.000506431 0.0013458
0.000506871 0.00135797 0.000497043 0.000397553 0.000603463 0.00132883 0.00306593 0.0019688 0.00170159 0.00179264
0.0085437 0.0016001 0.000711756 0.000817195 0 0.000322242 0.000684778 0.00113976 0.00311566 0.00407123
0.0015634 0.000761015 0.00168941 0.000678273 0.00130855 0.00479998 0.00193211 0.00135314 0.000745478 0.00128705
0.00125128 0.00582624 0.0018743 0.000359943 0.00131308 0.00137268 0.00161345 0.00092901 0.00170081 0.00104485
0.00118161 0.000600062 0.000421782 0.0011287 0.00162828 0.00125313 0.00143902 0.000469018 0.00468913 0.00050155
0.000330353 0.00350089 0.00236662 0.00125076 0.00161234 0.00312921 0.000851923 0.00118584 0.00255291 0.000808895
0.00128479 0.00107254 0.00148537 0.000830157 0.000319955 0 0 0.00176818 0.00430213 0.00185882
0.00268406 0.00218396 0.00137161 0.0032846 0.000694084 0.000449408 0.000607587 0.00364314 0.0129624 0.00101885
0.000613644 0.000499965 0.00128867 0.000431059 0.00191349 0.00248038 0.00111641 0.00140667 0.000465032 0.0016879
0.000547931 0.000356208 0.00132293 0.000611056 0.00139918 0.00143343 0.000503222 0.00146763 0.00369141 0.000907228
0.00212066 0.00286069 0.00122434 0.00183213 0.000806678 0.000760491 0.00132356 0.002962 0.00131938 0.0013023
0.000293694 0.00921527 0.00203409 0.000942705 0.00188786 0.000996854 0.00583282 0.00219096 0.00134834 0.0015937
0.00359545 0.00145618 0.00042093 0.00171376 0.00226103 0.00117277 0.000815411 0.00045572 0.000944854 0.000432496
0.000364015 0.00112638 0.00277173 0.000682909 0.00156719 0.000646201 0.00174415 0.00107571 0.000618149 0.000314838
0.0037567 0.00197539 0 0.000420791 0 0 0.000401169 0.000750911 0.00301288 0.00179351
0.00283602 0.00164897 0.00137001 0.00129115 0.00305119 0.00063395 0.00176514 0.000481139 0.00119491 0.00201701
0.00122535 0.000310859 0.00215466 0.0141096 0.00060671 0.00134642 0.00151504 0.00255861 0.00200071 0.001005
0.000500404 0.000415002 0.00142499 0.000865348 0.000473042 0.000754448 0.00152419 0.00120282 0.000429037 0.00138768
0.00295411 0.000794931 0.000912052 0.000332911 0.0110043 0.00213868 0.00131564 0.0012131 0.00191542 0.00181387
0.00113877 0.00235537 0.00108461 0.00089006 0.00209114 0.000771004 0.000828816 0.000308011 0.00231522 0.00952212
0.00223925 0.00159068 0.00243645 0.00173194 0.00102454 0.00254363 0.000638286 0.000509696 0.00123162 0.00111853