# vtk DataFile Version 2.0
sampleSurface
ASCII
DATASET POLYDATA
POINTS 24833 float
1.9 9.25186e-18 0
1.9 0.003125 0.003125
1.9 -0.003125 0.003125
1.9 -0.00625 0
1.9 1.04083e-17 0.00625
1.9 0.00625 0
1.9 -0.00625 0.00625
1.9 0.00625 0.00625
1.9 -0.009375 0.003125
1.9 -0.003125 0.009375
1.9 0.009375 0.003125
1.9 0.003125 0.009375
1.9 -0.0125 0
1.9 0.0125 0
1.9 1.15648e-17 0.0125
1.9 -0.009375 0.009375
1.9 0.009375 0.009375
1.9 -0.0125 0.00625
1.9 0.0125 0.00625
1.9 -0.00625 0.0125
1.9 0.00625 0.0125
1.9 0.015625 0.003125
1.9 0.003125 0.015625
1.9 -0.015625 0.003125
1.9 -0.003125 0.015625
1.9 -0.0125 0.0125
1.9 0.0125 0.0125
1.9 -0.009375 0.015625
1.9 -0.015625 0.009375
1.9 0.015625 0.009375
1.9 0.009375 0.015625
1.9 -0.01875 0
1.9 0.01875 0
1.9 8.09538e-18 0.01875
1.9 -0.01875 0.00625
1.9 0.01875 0.00625
1.9 -0.00625 0.01875
1.9 0.00625 0.01875
1.9 -0.021875 0.003125
1.9 0.015625 0.015625
1.9 0.021875 0.003125
1.9 -0.015625 0.015625
1.9 -0.003125 0.021875
1.9 0.003125 0.021875
1.9 -0.01875 0.0125
1.9 -0.0125 0.01875
1.9 0.0125 0.01875
1.9 0.01875 0.0125
1.9 -0.021875 0.009375
1.9 0.021875 0.009375
1.9 -0.009375 0.021875
1.9 0.009375 0.021875
1.9 -0.025 0
1.9 0.025 0
1.9 4.62593e-18 0.025
1.9 -0.025 0.00625
1.9 0.025 0.00625
1.9 -0.00625 0.025
1.9 0.00625 0.025
1.9 -0.01875 0.01875
1.9 0.01875 0.01875
1.9 -0.021875 0.015625
1.9 -0.015625 0.021875
1.9 0.021875 0.015625
1.9 0.015625 0.021875
1.9 -0.025 0.0125
1.9 0.025 0.0125
1.9 -0.0125 0.025
1.9 0.0125 0.025
1.9 0.028125 0.003125
1.9 0.003125 0.028125
1.9 -0.028125 0.003125
1.9 -0.003125 0.028125
1.9 -0.009375 0.028125
1.9 -0.028125 0.009375
1.9 0.028125 0.009375
1.9 0.009375 0.028125
1.9 -0.021875 0.021875
1.9 0.021875 0.021875
1.9 -0.03125 0
1.9 0.03125 0
1.9 -0.025 0.01875
1.9 0.025 0.01875
1.9 -0.01875 0.025
1.9 6.93889e-18 0.03125
1.9 0.01875 0.025
1.9 -0.03125 0.00625
1.9 0.03125 0.00625
1.9 -0.00625 0.03125
1.9 0.00625 0.03125
1.9 0.028125 0.015625
1.9 0.015625 0.028125
1.9 -0.028125 0.015625
1.9 -0.015625 0.028125
1.9 -0.03125 0.0125
1.9 0.03125 0.0125
1.9 -0.0125 0.03125
1.9 0.0125 0.03125
1.9 -0.034375 0.003125
1.9 0.034375 0.003125
1.9 -0.003125 0.034375
1.9 0.003125 0.034375
1.9 -0.025 0.025
1.9 0.025 0.025
1.9 -0.021875 0.028125
1.9 -0.028125 0.021875
1.9 0.028125 0.021875
1.9 0.021875 0.028125
1.9 -0.034375 0.009375
1.9 0.034375 0.009375
1.9 -0.009375 0.034375
1.9 0.009375 0.034375
1.9 -0.03125 0.01875
1.9 0.03125 0.01875
1.9 -0.01875 0.03125
1.9 0.01875 0.03125
1.9 -0.0375 0
1.9 0.0375 0
1.9 9.25186e-18 0.0375
1.9 -0.034375 0.015625
1.9 0.034375 0.015625
1.9 -0.015625 0.034375
1.9 0.015625 0.034375
1.9 -0.0375 0.00625
1.9 0.0375 0.00625
1.9 -0.00625 0.0375
1.9 0.00625 0.0375
1.9 -0.0375 0.0125
1.9 0.0375 0.0125
1.9 -0.0125 0.0375
1.9 0.0125 0.0375
1.9 0.028125 0.028125
1.9 -0.028125 0.028125
1.9 -0.03125 0.025
1.9 -0.025 0.03125
1.9 0.025 0.03125
1.9 0.03125 0.025
1.9 -0.034375 0.021875
1.9 0.034375 0.021875
1.9 -0.021875 0.034375
1.9 0.021875 0.034375
1.9 0.040625 0.003125
1.9 0.003125 0.040625
1.9 -0.040625 0.003125
1.9 -0.003125 0.040625
1.9 -0.009375 0.040625
1.9 -0.040625 0.009375
1.9 0.040625 0.009375
1.9 0.009375 0.040625
1.9 -0.0375 0.01875
1.9 0.0375 0.01875
1.9 -0.01875 0.0375
1.9 0.01875 0.0375
1.9 0.040625 0.015625
1.9 0.015625 0.040625
1.9 -0.040625 0.015625
1.9 -0.015625 0.040625
1.9 -0.04375 0
1.9 0.04375 0
1.9 6.93889e-18 0.04375
1.9 -0.04375 0.00625
1.9 0.04375 0.00625
1.9 -0.03125 0.03125
1.9 0.03125 0.03125
1.9 -0.00625 0.04375
1.9 0.00625 0.04375
1.9 -0.034375 0.028125
1.9 -0.028125 0.034375
1.9 0.034375 0.028125
1.9 0.028125 0.034375
1.9 -0.0375 0.025
1.9 0.0375 0.025
1.9 -0.025 0.0375
1.9 0.025 0.0375
1.9 -0.04375 0.0125
1.9 0.04375 0.0125
1.9 -0.0125 0.04375
1.9 0.0125 0.04375
1.9 -0.021875 0.040625
1.9 -0.040625 0.021875
1.9 0.040625 0.021875
1.9 0.021875 0.040625
1.9 -0.046875 0.003125
1.9 0.046875 0.003125
1.9 -0.003125 0.046875
1.9 0.003125 0.046875
1.9 -0.04375 0.01875
1.9 0.04375 0.01875
1.9 -0.01875 0.04375
1.9 0.01875 0.04375
1.9 -0.046875 0.009375
1.9 0.046875 0.009375
1.9 -0.009375 0.046875
1.9 0.009375 0.046875
1.9 -0.034375 0.034375
1.9 0.034375 0.034375
1.9 -0.0375 0.03125
1.9 0.0375 0.03125
1.9 -0.03125 0.0375
1.9 0.03125 0.0375
1.9 -0.046875 0.015625
1.9 0.040625 0.028125
1.9 0.028125 0.040625
1.9 0.046875 0.015625
1.9 -0.040625 0.028125
1.9 -0.028125 0.040625
1.9 -0.015625 0.046875
1.9 0.015625 0.046875
1.9 -0.05 0
1.9 0.05 0
1.9 4.62593e-18 0.05
1.9 -0.05 0.00625
1.9 0.05 0.00625
1.9 -0.04375 0.025
1.9 0.04375 0.025
1.9 -0.025 0.04375
1.9 0.025 0.04375
1.9 -0.00625 0.05
1.9 0.00625 0.05
1.9 -0.05 0.0125
1.9 0.05 0.0125
1.9 -0.0125 0.05
1.9 0.0125 0.05
1.9 -0.046875 0.021875
1.9 0.046875 0.021875
1.9 -0.021875 0.046875
1.9 0.021875 0.046875
1.9 -0.0375 0.0375
1.9 0.0375 0.0375
1.9 0.053125 0.003125
1.9 -0.034375 0.040625
1.9 0.003125 0.053125
1.9 -0.053125 0.003125
1.9 -0.040625 0.034375
1.9 0.040625 0.034375
1.9 0.034375 0.040625
1.9 -0.003125 0.053125
1.9 -0.05 0.01875
1.9 0.05 0.01875
1.9 -0.01875 0.05
1.9 0.01875 0.05
1.9 -0.04375 0.03125
1.9 0.04375 0.03125
1.9 -0.03125 0.04375
1.9 0.03125 0.04375
1.9 -0.009375 0.053125
1.9 -0.053125 0.009375
1.9 0.053125 0.009375
1.9 0.009375 0.053125
1.9 -0.046875 0.028125
1.9 0.046875 0.028125
1.9 -0.028125 0.046875
1.9 0.028125 0.046875
1.9 0.053125 0.015625
1.9 0.015625 0.053125
1.9 -0.053125 0.015625
1.9 -0.015625 0.053125
1.9 -0.05 0.025
1.9 0.05 0.025
1.9 -0.025 0.05
1.9 0.025 0.05
1.9 -0.05625 0
1.9 0.05625 0
1.9 2.31296e-18 0.05625
1.9 -0.05625 0.00625
1.9 0.05625 0.00625
1.9 -0.00625 0.05625
1.9 0.00625 0.05625
1.9 -0.021875 0.053125
1.9 -0.053125 0.021875
1.9 0.053125 0.021875
1.9 0.021875 0.053125
1.9 0.040625 0.040625
1.9 -0.040625 0.040625
1.9 -0.05625 0.0125
1.9 0.05625 0.0125
1.9 -0.0125 0.05625
1.9 0.0125 0.05625
1.9 -0.04375 0.0375
1.9 -0.0375 0.04375
1.9 0.0375 0.04375
1.9 0.04375 0.0375
1.9 -0.046875 0.034375
1.9 0.046875 0.034375
1.9 -0.034375 0.046875
1.9 0.034375 0.046875
1.9 -0.05 0.03125
1.9 0.05 0.03125
1.9 -0.03125 0.05
1.9 0.03125 0.05
1.9 -0.05625 0.01875
1.9 0.05625 0.01875
1.9 -0.01875 0.05625
1.9 0.01875 0.05625
1.9 -0.059375 0.003125
1.9 0.059375 0.003125
1.9 -0.003125 0.059375
1.9 0.003125 0.059375
1.9 0.053125 0.028125
1.9 0.028125 0.053125
1.9 -0.053125 0.028125
1.9 -0.028125 0.053125
1.9 -0.059375 0.009375
1.9 0.059375 0.009375
1.9 -0.009375 0.059375
1.9 0.009375 0.059375
1.9 -0.059375 0.015625
1.9 0.059375 0.015625
1.9 -0.015625 0.059375
1.9 0.015625 0.059375
1.9 -0.05625 0.025
1.9 0.05625 0.025
1.9 -0.025 0.05625
1.9 0.025 0.05625
1.9 -0.04375 0.04375
1.9 0.04375 0.04375
1.9 -0.046875 0.040625
1.9 -0.040625 0.046875
1.9 0.046875 0.040625
1.9 0.040625 0.046875
1.9 -0.0625 0
1.9 0.0625 0
1.9 -0.05 0.0375
1.9 0.05 0.0375
1.9 -0.0375 0.05
1.9 0.0375 0.05
1.9 0 0.0625
1.9 -0.0625 0.00625
1.9 0.0625 0.00625
1.9 -0.00625 0.0625
1.9 0.00625 0.0625
1.9 -0.034375 0.053125
1.9 -0.059375 0.021875
1.9 0.059375 0.021875
1.9 -0.053125 0.034375
1.9 0.053125 0.034375
1.9 -0.021875 0.059375
1.9 0.021875 0.059375
1.9 0.034375 0.053125
1.9 -0.0625 0.0125
1.9 0.0625 0.0125
1.9 -0.0125 0.0625
1.9 0.0125 0.0625
1.9 -0.05625 0.03125
1.9 0.05625 0.03125
1.9 -0.03125 0.05625
1.9 0.03125 0.05625
1.9 -0.0625 0.01875
1.9 0.0625 0.01875
1.9 -0.01875 0.0625
1.9 0.01875 0.0625
1.9 0.065625 0.003125
1.9 -0.059375 0.028125
1.9 0.003125 0.065625
1.9 -0.065625 0.003125
1.9 0.059375 0.028125
1.9 -0.028125 0.059375
1.9 0.028125 0.059375
1.9 -0.003125 0.065625
1.9 -0.009375 0.065625
1.9 -0.065625 0.009375
1.9 0.065625 0.009375
1.9 -0.046875 0.046875
1.9 0.046875 0.046875
1.9 0.009375 0.065625
1.9 -0.05 0.04375
1.9 0.05 0.04375
1.9 -0.04375 0.05
1.9 0.04375 0.05
1.9 0.053125 0.040625
1.9 0.040625 0.053125
1.9 -0.053125 0.040625
1.9 -0.040625 0.053125
1.9 -0.0625 0.025
1.9 0.0625 0.025
1.9 -0.025 0.0625
1.9 0.025 0.0625
1.9 0.065625 0.015625
1.9 0.015625 0.065625
1.9 -0.065625 0.015625
1.9 -0.015625 0.065625
1.9 -0.05625 0.0375
1.9 0.05625 0.0375
1.9 -0.0375 0.05625
1.9 0.0375 0.05625
1.9 -0.059375 0.034375
1.9 0.059375 0.034375
1.9 -0.034375 0.059375
1.9 0.034375 0.059375
1.9 -0.06875 0
1.9 0.06875 0
1.9 1.15648e-18 0.06875
1.9 -0.06875 0.00625
1.9 0.06875 0.00625
1.9 -0.00625 0.06875
1.9 0.00625 0.06875
1.9 -0.021875 0.065625
1.9 -0.065625 0.021875
1.9 0.065625 0.021875
1.9 0.021875 0.065625
1.9 -0.06875 0.0125
1.9 0.06875 0.0125
1.9 -0.0625 0.03125
1.9 0.0625 0.03125
1.9 -0.03125 0.0625
1.9 -0.0125 0.06875
1.9 0.0125 0.06875
1.9 0.03125 0.0625
1.9 -0.05 0.05
1.9 0.05 0.05
1.9 -0.046875 0.053125
1.9 -0.053125 0.046875
1.9 0.053125 0.046875
1.9 0.046875 0.053125
1.9 -0.05625 0.04375
1.9 0.05625 0.04375
1.9 -0.04375 0.05625
1.9 0.04375 0.05625
1.9 -0.06875 0.01875
1.9 0.06875 0.01875
1.9 -0.01875 0.06875
1.9 0.01875 0.06875
1.9 0.065625 0.028125
1.9 0.028125 0.065625
1.9 -0.065625 0.028125
1.9 -0.028125 0.065625
1.9 -0.071875 0.003125
1.9 -0.059375 0.040625
1.9 0.071875 0.003125
1.9 0.059375 0.040625
1.9 -0.040625 0.059375
1.9 0.040625 0.059375
1.9 -0.003125 0.071875
1.9 0.003125 0.071875
1.9 -0.071875 0.009375
1.9 0.071875 0.009375
1.9 -0.009375 0.071875
1.9 0.009375 0.071875
1.9 -0.0625 0.0375
1.9 0.0625 0.0375
1.9 -0.0375 0.0625
1.9 0.0375 0.0625
1.9 -0.06875 0.025
1.9 0.06875 0.025
1.9 -0.025 0.06875
1.9 0.025 0.06875
1.9 -0.071875 0.015625
1.9 0.071875 0.015625
1.9 -0.015625 0.071875
1.9 0.015625 0.071875
1.9 -0.034375 0.065625
1.9 -0.065625 0.034375
1.9 0.065625 0.034375
1.9 0.034375 0.065625
1.9 -0.075 0
1.9 0.075 0
1.9 2.31296e-18 0.075
1.9 0.053125 0.053125
1.9 -0.071875 0.021875
1.9 0.071875 0.021875
1.9 -0.053125 0.053125
1.9 -0.021875 0.071875
1.9 0.021875 0.071875
1.9 -0.05625 0.05
1.9 -0.05 0.05625
1.9 0.05 0.05625
1.9 0.05625 0.05
1.9 -0.075 0.00625
1.9 0.075 0.00625
1.9 -0.00625 0.075
1.9 0.00625 0.075
1.9 -0.06875 0.03125
1.9 0.06875 0.03125
1.9 -0.03125 0.06875
1.9 0.03125 0.06875
1.9 -0.059375 0.046875
1.9 0.059375 0.046875
1.9 -0.046875 0.059375
1.9 0.046875 0.059375
1.9 -0.075 0.0125
1.9 0.075 0.0125
1.9 -0.0125 0.075
1.9 0.0125 0.075
[...]
POINT_DATA 24833
FIELD attributes 1
k 1 24833 float
0 0.00413667 0.00515252 0 0.00452861 0 0.00502547 0.00381472 0.00601594 0.00448944
0.00303013 0.00433579 0 0 0.00363768 0.004444 0.00375629 0.00531266 0.00296284 0.00355801
0.00352311 0.00192178 0.00295415 0.00652788 0.00277134 0.00335305 0.00320219 0.00252725 0.00426283 0.00314318
0.0030462 0 0 0.00241007 0.00539485 0.00215142 0.00219811 0.00258014 0.00680655 0.00286309
0.00114465 0.00217814 0.00185192 0.00206289 0.00309003 0.00194089 0.00260032 0.00271381 0.00398213 0.00239607
0.00164194 0.00225732 0 0 0.0017701 0.00536451 0.00148894 0.00160537 0.00191806 0.00169796
0.00239849 0.00193702 0.00141624 0.0024529 0.00223466 0.00286603 0.00211296 0.00142839 0.00196882 0.000764511
0.00163909 0.00688717 0.0015265 0.00140111 0.0037822 0.00165052 0.00171296 0.00126042 0.00204331 0
0 0.00152488 0.00206222 0.00127085 0.00154588 0.00188139 0.00525685 0.00102459 0.00144481 0.00162133
0.00195235 0.00167034 0.00176275 0.00125425 0.00266173 0.00153335 0.00132742 0.00162993 0.00685632 0.0005966
0.00147143 0.00154649 0.00115823 0.00171272 0.0011525 0.00113934 0.00180031 0.00157727 0.00350169 0.00108672
0.00138019 0.00158678 0.00138604 0.00165673 0.00121809 0.00156108 0 0 0.00136456 0.00160026
0.00144383 0.00127413 0.00154966 0.00513082 0.000748626 0.00129285 0.00141341 0.00248398 0.00108921 0.00120975
0.00142051 0.00143001 0.00108064 0.00107352 0.00113932 0.00142877 0.00148306 0.0010418 0.00143045 0.00119146
0.00144704 0.000494894 0.00124601 0.00681475 0.0011943 0.00112546 0.00335051 0.000816291 0.00127438 0.0012736
0.00124007 0.00113345 0.00136736 0.00101 0.00127124 0.00148344 0.00105921 0 0 0.000969583
0.0050568 0.000602591 0.00108783 0.00124969 0.000925389 0.000999346 0.00103231 0.00113268 0.00127147 0.00126076
0.00101014 0.00119601 0.0010799 0.00125711 0.00239076 0.000802669 0.000880169 0.00100716 0.00100899 0.000968917
0.001076 0.00120148 0.00676347 0.000434547 0.000704183 0.000733839 0.00120276 0.000888828 0.000841866 0.000981055
0.00329846 0.000664632 0.000677617 0.000743152 0.00110571 0.00103652 0.001059 0.00103511 0.00105302 0.00108805
0.00143064 0.00100614 0.00111915 0.000719751 0.000997546 0.000986489 0.000658395 0.000739864 0 0
0.000635886 0.00501713 0.000510581 0.000965799 0.000886831 0.000816289 0.000935314 0.000598557 0.000661698 0.0023535
0.000609106 0.000567964 0.000668354 0.000928057 0.000749563 0.000640872 0.000711631 0.00104829 0.000867986 0.000387728
0.000987203 0.000575838 0.00672859 0.00110044 0.000826319 0.000935774 0.000529683 0.00116734 0.000610324 0.000545897
0.000653065 0.00103929 0.00078616 0.00080591 0.000867072 0.000482747 0.003278 0.000555418 0.000593963 0.000968676
0.000715621 0.000628807 0.000708991 0.000496622 0.000596438 0.00140692 0.000453097 0.000935805 0.000601586 0.000528752
0.000623051 0 0 0.000578114 0.00498484 0.000454532 0.00051127 0.000630472 0.000431224 0.000903757
0.000475361 0.000564326 0.000673333 0.000999805 0.0023305 0.000485404 0.000458911 0.000649952 0.00105355 0.000810451
0.000715461 0.00064595 0.00109049 0.000596557 0.000621142 0.000704376 0.00102095 0.000551923 0.000518311 0.000600568
0.00114778 0.000422317 0.00042425 0.000637052 0.00668641 0.000373506 0.000556383 0.000650553 0.000465799 0.000507256
0.000942728 0.000414104 0.00324635 0.000501475 0.000476267 0.000701535 0.00139073 0.000388101 0.000423534 0.000707872
0.000913447 0.000401755 0.000403712 0.000586292 0.000832556 0.000537088 0.00102346 0.000633656 0.000487592 0.00054836
0 0 0.00106062 0.000478395 0.000520875 0.000547769 0.000744442 0.00494335 0.000428163 0.000617499
0.000867314 0.00040919 0.000889734 0.000329185 0.00108189 0.000429714 0.000389143 0.00067957 0.00048165 0.00231382
0.000434378 0.000507842 0.000952818 0.00100314 0.000395341 0.000398183 0.000514767 0.00113644 0.00035626 0.000429153
0.000941528 0.000372696 0.000917569 0.000968925 0.0066029 0.000336676 0.000380377 0.000594014 0.000801908 0.00063544
0.00323774 0.000464976 0.000673302 0.000439069 0.00114825 0.000868788 0.000433006 0.000543588 0.000461334 0.000399718
0.000456692 0.00104663 0.00041951 0.000897082 0.000332307 0.000391084 0.000876708 0.000382961 0.00125362 0.00138044
0.000496127 0.0010664 0.000393755 0.000407129 0.000454911 0.00107035 0.000349175 0.00038906 0.000476147 0
0 0.000779419 0.00487616 0.00037932 0.000698348 0.000865849 0.000407807 0.000884839 0.000324794 0.00112505
0.00228051 0.000394768 0.000982264 0.00034872 0.00039075 0.000600653 0.00102425 0.000739457 0.000585352 0.000410044
0.000447883 0.000731758 0.000405647 0.000401217 0.000912633 0.000408917 0.000428355 0.000403348 0.00111814 0.000367511
0.000504371 0.00116756 0.000338574 0.0011082 0.000896186 0.000387009 0.00650165 0.00106674 0.000337641 0.000396414
0.000410758 0.000405154 0.000692429 0.000654416 0.00316234 0.000341966 0.000663618 0.000691807 0.00106412 0.000380914
0.000410877 0.000543219 0.000877358 0.000350977 0.000433407 0.00118719 0.0013415 0.000389168 0.000607429 0.00100333
0.000406555 0.00104495 0.000370457 0.000779472 0 0 0.000572272 0.000394245 0.000865797 0.000373121
0.000488466 0.000506121 0.00128823 0.000640042 0.000457403 0.000373643 0.000409328 0.00478261 0.000292207 0.000600613
0.000566223 0.000953421 0.000357363 0.000415423 0.00108688 0.0008054 0.000433889 0.000435269 0.000350331 0.00220027
0.000297884 0.000609038 0.000692519 0.000959011 0.000404525 0.000434432 0.000401091 0.000862612 0.000407609 0.000512103
0.000367419 0.00107445 0.000437136 0.000432691 0.00122728 0.00106451 0.0003306 0.00056679 0.00097454 0.000310227
0.000459683 0.00640844 0.000482562 0.00104892 0.000363805 0.000437519 0.000894449 0.000563846 0.00305802 0.000178994
0.000458984 0.00083873 0.000318615 0.000489292 0.0011559 0.000490007 0.000366511 0.00028141 0.000534542 0.000615953
0.00123923 0.00100994 0.000353003 0.000457993 0.000403529 0.000348781 0.000435436 0.00123256 0.000601259 0.00070483
0.000382758 0.00045308 0.000325449 0.000454567 0.000889456 0.000380188 0.000336777 0.00055235 0.000811501 0.000278702
0.000990645 0 0 0.000908735 0.000307919 0.000448157 0.000475348 0.00117127 0.00468065 0.000235241
0.000996408 0.000349326 0.000464755 0.000595315 0.000520792 0.000469664 0.00209319 0.000181135 0.000588386 0.00052383
0.00106635 0.00032415 0.000470948 0.00105366 0.000255218 0.00111744 0.000815009 0.000466004 0.000981773 0.000212878
0.000603243 0.000728447 0.00101052 0.000302678 0.000460607 0.00113838 0.000479028 0.000319486 0.000525708 0.000331922
0.000470436 0.000296715 0.000313427 0.000265907 0.000589921 0.000464491 0.00630977 0.000326268 0.000479377 0.000479771
0.00294637 0.000125475 0.000557384 0.000480216 0.000782204 0.000216119 0.000772517 0.000316133 0.000479588 0.000340716
0.00054303 0.000955572 0.000458498 0.00094738 0.000256035 0.00110779 0.00112913 0.00013866 0.000955378 0.000285356
0.00049637 0.000478718 0.000631056 0.000540168 0.00100363 0.000296807 0.00048742 0.00092257 0.000848031 0.000234015
0.000474733 0.00101998 0.000747226 0.000152739 0.000628306 0.000767022 0 0 0.00051644 0.00459145
0.000244962 0.000573497 0.000496565 0.000277526 0.0011595 0.00101841 0.000477547 0.00198518 0.000126145 0.000489096
0.000280289 0.000642142 0.000508354 0.000480233 0.000499341 0.000291245 0.000252686 0.000565447 0.000299016 0.000488283
0.000255694 0.000755079 0.000177816 0.000525459 0.000947181 0.000655312 0.000285561 0.000502926 0.00028146 0.000905994
0.000135104 0.00095021 0.000288738 0.000457086 0.00102885 0.000650301 0.000600628 0.000828896 0.000299438 0.000506468
0.000557724 0.00039882 0.000522239 0.00629195 0.000584374 0.000726913 0.000173869 0.000562339 0.000787198 0.000504817
0.000672851 0.00281769 0.000129286 0.000874657 0.000246992 0.000974358 0.000300197 0.000448971 0.000907491 0.000998406
0.000504033 0.00011116 0.000508998 0.00104753 0.000707276 0.000977765 0.000333265 0.000472166 0.00102477 0.000257738
0.00049778 0.000788741 0.00026348 0.000505997 0.000498457 0.000237763 0.000288426 0.000456279 0.000896099 0.000634568
0.000700089 0.000137857 0.000586323 0.000517212 0.000305832 0.000505483 0.000222722 0.000960393 0.000374397 0.000443326
0.000940611 0 0 0.000607556 0.000313527 0.000511903 0.000305483 0.000538262 0.0044774 0.000277313
0.000582231 0.000516532 0.000326638 0.000472314 0.000730536 0.000521757 0.00184048 0.000125453 0.00061365 0.000510022
0.000227063 0.000848267 0.000705259 0.000461024 0.000889736 0.000366599 0.000412961 0.000878524 0.000864863 0.000340904
0.00049582 0.000827005 0.000838546 0.000143126 0.000569756 0.000531193 0.000957898 0.000380941 0.000462974 0.00100057
0.000389662 0.000819967 0.000402047 0.000881459 0.00625132 0.000446062 0.000525491 0.000520942 0.000678935 0.000224506
0.000460784 0.000649414 0.00050908 0.000263694 0.000509655 0.000510331 0.000298887 0.000217905 0.00254863 0.000135083
0.000546208 0.000518913 0.000515825 0.000316384 0.000512493 0.000224839 0.000937408 0.000402182 0.000414435 0.00088867
0.000948084 0.000517447 0.000126285 0.000527166 0.000336076 0.000245434 0.000528266 0.000508146 0.000736603 0.000353046
0.00065035 0.000335152 0.000507784 0.000483327 0.000378903 0.000818045 0.000442962 0.000784535 0.000658484 0.000197201
0.000903926 0.000369885 0.000408915 0.000521306 0.000796658 0.000355841 0.000493731 0.000836731 0 0.000495343
0.000223031 0.00428298 0.000453634 0.000517842 0.000290573 0.00161888 0.000421278 0.000514102 0.000130684 0.000877691
0.00037524 0.000443216 0.000879414 0.000651909 0.000335902 0.000338629 0.000641762 0.000833406 0.000434749 0.000353569
0.000856263 0.000518554 0.000280245 0.000762575 0.00037832 0.000510635 0.000161743 0.000514605 0.00030167 0.000517109
0.00024831 0.000324742 0.000213296 0.000381557 0.000927415 0.000410428 0.000509267 0.000516711 0.000828966 0.00051686
0.000324096 0.000505553 0.000268496 0.000769276 0.000447172 0.000326298 0.000900693 0.000632896 0.000326419 0.000547763
0.000266551 0.000510754 0.00618354 0.000547041 0.000322051 0.0004982 0.000378829 0.000424185 0.000887418 0.000432623
0.000355985 0.000813903 0.00031865 0.00214843 0.000520758 0.000686982 0.000338286 0.000471007 0.00068561 0.000508593
0.00083039 0.000291989 0.000687638 0.000302955 0.000678983 0.000391537 0.000353749 0.000851391 0.000828793 0.000434602
0.000840455 0.000446814 0.000328431 0.000858363 0.000284109 0.000613341 0.000504496 0.000523284 0.000289739 0.000522838
0.000520943 0.000302805 0.000281794 0 0.00086506 0.000399548 0.000383545 0.000816169 0.000488602 0.00404454
0.00041149 0.000524641 0.000502281 0.000310395 0.000504793 0.000254972 0.000777741 0.000305105 0.000811531 0.000446993
0.000483966 0.000523487 0.000607849 0.000313514 0.000489854 0.000236424 0.000274025 0.00135723 0.000338166 0.000535674
0.000520683 0.000317219 0.000472648 0.000404771 0.000877876 0.000430289 0.000344066 0.000783748 0.00068138 0.000307261
0.000529825 0.000457497 0.000575436 0.000321502 0.000675489 0.000272867 0.000721519 0.000649988 0.000590501 0.000829222
0.000323067 0.000289697 0.00052307 0.000844067 0.000438551 0.000709313 0.000367249 0.00042178 0.000769182 0.00610877
0.00049951 0.000519958 0.00173742 0.000403613 0.000547096 0.000712663 0.000826157 0.000294112 0.000403727 0.000530802
0.000373954 0.000800573 0.000338411 0.000566248 0.000515122 0.000513419 0.000293053 0.000294385 0.000642482 0.000274425
0.00055969 0.000837079 0.000779714 0.000494947 0.000300518 0.000489768 0.000288374 0.000292826 0.000483056 0.000310618
0.000463942 0.000293175 0.000569124 0.000314534 0.000539962 0.000825241 0.000353748 0.000841328 0.000417008 0.00031181
0.000328343 0.000476288 0.00044504 0 0.000598447 0.00385274 0.000721798 0.000531623 0.000352784 0.000437317
0.000574807 0.000273886 0.000661806 0.000574008 0.000632306 0.00057169 0.00028612 0.000524336 0.00114623 0.000528208
0.000662262 0.000326943 0.000818842 0.000897078 0.000606864 0.000390019 0.000421067 0.000749275 0.000616027 0.000453241
0.000625045 0.000668871 0.00026469 0.00054095 0.000702804 0.000393492 0.000804717 0.000396873 0.000767319 0.000293755
0.000777412 0.00051929 0.000289665 0.000513795 0.000510266 0.000280106 0.000307934 0.000556607 0.000367234 0.000557282
0.000491632 0.00030256 0.000467392 0.00031738 0.000431105 0.000477023 0.000316631 0.000319557 0.000689833 0.0060684
0.000684486 0.000883914 0.000778089 0.000370028 0.000708423 0.00149636 0.000772336 0.000466969 0.000351123 0.000424656
0.000410405 0.000717088 0.00076337 0.000638477 0.000265159 0.000619206 0.000662385 0.000600847 0.00031155 0.000526368
0.000467905 0.000387807 0.000425666 0.00054612 0.000764877 0.000331413 0.000845853 0.000497636 0.000543845 0.000630599
0.000529611 0.000419194 0.000678574 0.000388913 0.000664836 0.000290124 0.000543525 0 0.000810717 0.00374282
0.000774462 0.00087482 0.000408919 0.000534232 0.000541767 0.000753632 0.000600104 0.000290091 0.000756284 0.000785105
0.000370647 0.000522296 0.000276507 0.0010133 0.000757337 0.00086369 0.000502393 0.000296619 0.00048666 0.000312936
0.000312984 0.000353654 0.000480762 0.000438428 0.000463729 0.00035291 0.000411641 0.000403458 0.000660347 0.000376026
0.000827604 0.000573313 0.000692981 0.000714707 0.000324742 0.000621061 0.000446661 0.000388246 0.000396813 0.000447601
0.000505952 0.000699179 0.000289913 0.000608562 0.000530016 0.000444164 0.000411842 0.000540377 0.000563177 0.000563376
0.000388027 0.000708943 0.000338591 0.000846137 0.0060782 0.00087279 0.000995759 0.000633797 0.000443573 0.000421122
0.0013283 0.000832148 0.00104135 0.000507991 0.000652325 0.000305906 0.000563507 0.000431934 0.00050735 0.000590075
0.000826392 0.000877702 0.000689145 0.000305927 0.000707933 0.000501109 0.000406435 0.000712654 0.000494952 0.000311371
0.000475652 0.000520853 0.000492719 0.000316877 0.00031365 0.000785512 0.000587158 0.000472962 0.000353844 0.0004215
0.000394982 0.00045047 0.000554251 0.000393778 0.000380219 0.000493021 0.000386564 0.000795261 0.000612482 0.000362004
0.000496726 0.000298495 0.00067367 0.000550766 0 0.000437103 0.000387687 0.000516937 0.000979694 0.000391012
0.000513601 0.000598914 0.000501512 0.00367438 0.000856956 0.00105136 0.000918052 0.000797033 0.000926184 0.000403765
0.000418515 0.000533991 0.000589872 0.000330826 0.000756607 0.000538225 0.000774128 0.000660612 0.000630463 0.000415667
0.0004121 0.000582516 0.000339657 0.00051327 0.000577601 0.000433434 0.000487704 0.000678543 0.000620334 0.00029653
0.00050077 0.000705492 0.000481736 0.00040651 0.000409133 0.000636454 0.000338449 0.000489139 0.00111067 0.00609137
0.000939558 0.000479924 0.000445858 0.000368473 0.000361101 0.000598941 0.000783327 0.00119965 0.000467896 0.000391738
0.000391702 0.000419602 0.000383935 0.000485257 0.00105768 0.000449053 0.000354541 0.000681579 0.000526295 0.000600544
0.000454588 0.000375094 0.000532138 0.000329607 0.000587913 0.00057507 0.000449695 0.000392758 0.000728002 0.00055418
0.000746263 0.000593134 0.000432765 0.000369949 0.000738343 0.000487791 0.000449584 0.000301618 0.000475959 0.000706485
0.000416234 0.000396025 0.000554932 0.000564518 0.000471381 0.000469258 0.000596918 0.00037029 0.000509066 0.00039407
0.000414378 0.000525821 0.000388689 0.000480836 0.000699199 0 0.00104158 0.00362764 0.000497362 0.000317861
0.000660999 0.000916717 0.00103699 0.000847858 0.000791696 0.000832216 0.000380204 0.000375191 0.000554561 0.000564405
0.000430672 0.000502301 0.000508553 0.000455923 0.000389315 0.000741733 0.000545408 0.000469941 0.000568731 0.000533143
0.000426939 0.00039734 0.000402191 0.000420877 0.000465892 0.000386303 0.000489355 0.000394539 0.000511254 0.000588116
0.000359494 0.000320851 0.00035311 0.000613277 0.000358507 0.00046722 0.000622794 0.000471724 0.000726605 0.000384736
0.000442483 0.000373192 0.000625208 0.000382756 0.000308279 0.00061838 0.0061123 0.000419586 0.000483195 0.000548388
0.000396006 0.000566784 0.000499423 0.00105536 0.00106073 0.000504538 0.000408798 0.000563081 0.00110726 0.00088862
0.000918885 0.000490812 0.000671514 0.000369339 0.000394527 0.000387704 0.000510836 0.000530339 0.000748573 0.000624298
0.0003819 0.000320184 0.000645689 0.0004619 0.000733753 0.000379747 0.000356402 0.000360745 0.000467852 0.000469041
0.000513373 0.000531685 0.000516753 0.000591816 0.000420999 0.000437672 0.000419281 0.000398704 0.00044767 0.000406562
0.000444721 0.000382803 0.000610017 0.000408311 0.000341356 0.000311725 0.000494197 0.00045637 0.000512831 0.000458511
0.000368064 0.000735125 0.000320922 0 0.00104674 0.00361052 0.000453533 0.0003649 0.000619159 0.00103959
0.000940334 0.000801982 0.000909764 0.000737446 0.000450359 0.000368304 0.000718118 0.000494351 0.000547289 0.000484041
0.000313671 0.000290464 0.00053323 0.000598296 0.000492897 0.000396606 0.00044275 0.000683 0.000346868 0.000485869
0.000422217 0.000382612 0.000610796 0.000800495 0.00048654 0.000482888 0.000403706 0.00038403 0.000445822 0.000319983
0.000345943 0.00054221 0.000789005 0.000327669 0.000492582 0.000616108 0.000433057 0.000410677 0.000526182 0.000530777
0.000371337 0.000326869 0.000431272 0.000966842 0.00616686 0.00110403 0.00111034 0.00105567 0.000814875 0.000456808
0.000787009 0.000297033 0.000415167 0.000305058 0.000582806 0.000414818 0.000431931 0.000393572 0.000591724 0.000514656
0.000331513 0.000424555 0.000444582 0.000279182 0.000387589 0.000891516 0.000432095 0.000377711 0.000515975 0.000438043
0.000364724 0.000622892 0.000828136 0.00043658 0.000423063 0.000604583 0.000488227 0.000350392 0.000464448 0.000427293
0.000372905 0.000682946 0.000747249 0.000335203 0.000307864 0.000309541 0.000407281 0.000318512 0.000491882 0.000524315
0.000382109 0.000415218 0.000675396 0.000259615 0.000428438 0.000859006 0 0.00107698 0.00364675 0.00120079
0.000895007 0.000400113 0.000342412 0.000524595 0.000407114 0.000279301 0.000357955 0.000781371 0.00113618 0.000704778
0.000419476 0.000706295 0.000389138 0.000309667 0.000588352 0.0005049 0.000389386 0.000870902 0.000449526 0.000287861
0.000386761 0.000260728 0.000464084 0.00103168 0.000469418 0.000277103 0.000434783 0.00041798 0.000348955 0.000289024
0.000345456 0.000403472 0.000418507 0.000406406 0.000396905 0.00104984 0.000294199 0.000464088 0.00040727 0.000384484
0.000483595 0.000332729 0.000669601 0.000415366 0.00030016 0.000422788 0.000818987 0.00040784 0.000378523 0.000590582
0.000715377 0.000310564 0.000262717 0.00030697 0.000405553 0.000376484 0.000521259 0.000411258 0.00030119 0.00630715
0.00125578 0.000981263 0.000420837 0.00111374 0.00023865 0.00105731 0.00133302 0.00081705 0.000397887 0.000352916
0.00066942 0.000497844 0.00120982 0.000595464 0.000284804 0.000378145 0.000304133 0.000785502 0.000339471 0.000392143
0.000315649 0.000553336 0.000335107 0.000407255 0.00119723 0.000340091 0.00040664 0.000268622 0.000610949 0.00112947
0.000248053 0.000379219 0.000382302 0.000284947 0.000414643 0.000261337 0.000444752 0.00027074 0.000401757 0.001315
0.000226699 0 0.0012349 0.000306283 0.00036795 0.00027849 0.00376724 0.00141257 0.000978609 0.000349088
0.000395012 0.00110544 0.000277201 0.000390328 0.000333232 0.000258716 0.000406092 0.000699969 0.000794372 0.000385545
0.000393097 0.00143114 0.000723382 0.00051203 0.000388399 0.000403627 0.000380494 0.000540466 0.00141004 0.000207557
0.000256453 0.00054752 0.000291262 0.000446982 0.000326797 0.000333173 0.000274047 0.00148404 0.000455506 0.000379579
0.000363134 0.000638129 0.000378635 0.000337422 0.00073357 0.000395596 0.00161756 0.000268142 0.000277777 0.00103125
0.000291564 0.00029161 0.000399309 0.000237486 0.00035062 0.00141793 0.000223766 0.000380446 0.000290524 0.000595739
0.000634216 0.000243388 0.000267487 0.00121169 0.006578 0.00149086 0.000388157 0.00168271 0.000203328 0.000257788
0.000379727 0.000412193 0.00157062 0.00112652 0.000904435 0.000275774 0.000490958 0.000232915 0.000576578 0.000495818
0.00161111 0.000283471 0.00139934 0.000249772 0.000242135 0.000860969 0.00026635 0.000363999 0.000291341 0.000324035
0.000352204 0.00168028 0.000204278 0.00191798 0.000387012 0.000309889 0.000380156 0.000369509 0.000381371 0.00036409