# vtk DataFile Version 2.0
sampleSurface
ASCII
DATASET POLYDATA
POINTS 24833 float
1.9 9.25186e-18 0
1.9 0.003125 0.003125
1.9 -0.003125 0.003125
1.9 -0.00625 0
1.9 1.04083e-17 0.00625
1.9 0.00625 0
1.9 -0.00625 0.00625
1.9 0.00625 0.00625
1.9 -0.009375 0.003125
1.9 -0.003125 0.009375
1.9 0.009375 0.003125
1.9 0.003125 0.009375
1.9 -0.0125 0
1.9 0.0125 0
1.9 1.15648e-17 0.0125
1.9 -0.009375 0.009375
1.9 0.009375 0.009375
1.9 -0.0125 0.00625
1.9 0.0125 0.00625
1.9 -0.00625 0.0125
1.9 0.00625 0.0125
1.9 0.015625 0.003125
1.9 0.003125 0.015625
1.9 -0.015625 0.003125
1.9 -0.003125 0.015625
1.9 -0.0125 0.0125
1.9 0.0125 0.0125
1.9 -0.009375 0.015625
1.9 -0.015625 0.009375
1.9 0.015625 0.009375
1.9 0.009375 0.015625
1.9 -0.01875 0
1.9 0.01875 0
1.9 8.09538e-18 0.01875
1.9 -0.01875 0.00625
1.9 0.01875 0.00625
1.9 -0.00625 0.01875
1.9 0.00625 0.01875
1.9 -0.021875 0.003125
1.9 0.015625 0.015625
1.9 0.021875 0.003125
1.9 -0.015625 0.015625
1.9 -0.003125 0.021875
1.9 0.003125 0.021875
1.9 -0.01875 0.0125
1.9 -0.0125 0.01875
1.9 0.0125 0.01875
1.9 0.01875 0.0125
1.9 -0.021875 0.009375
1.9 0.021875 0.009375
1.9 -0.009375 0.021875
1.9 0.009375 0.021875
1.9 -0.025 0
1.9 0.025 0
1.9 4.62593e-18 0.025
1.9 -0.025 0.00625
1.9 0.025 0.00625
1.9 -0.00625 0.025
1.9 0.00625 0.025
1.9 -0.01875 0.01875
1.9 0.01875 0.01875
1.9 -0.021875 0.015625
1.9 -0.015625 0.021875
1.9 0.021875 0.015625
1.9 0.015625 0.021875
1.9 -0.025 0.0125
1.9 0.025 0.0125
1.9 -0.0125 0.025
1.9 0.0125 0.025
1.9 0.028125 0.003125
1.9 0.003125 0.028125
1.9 -0.028125 0.003125
1.9 -0.003125 0.028125
1.9 -0.009375 0.028125
1.9 -0.028125 0.009375
1.9 0.028125 0.009375
1.9 0.009375 0.028125
1.9 -0.021875 0.021875
1.9 0.021875 0.021875
1.9 -0.03125 0
1.9 0.03125 0
1.9 -0.025 0.01875
1.9 0.025 0.01875
1.9 -0.01875 0.025
1.9 6.93889e-18 0.03125
1.9 0.01875 0.025
1.9 -0.03125 0.00625
1.9 0.03125 0.00625
1.9 -0.00625 0.03125
1.9 0.00625 0.03125
1.9 0.028125 0.015625
1.9 0.015625 0.028125
1.9 -0.028125 0.015625
1.9 -0.015625 0.028125
1.9 -0.03125 0.0125
1.9 0.03125 0.0125
1.9 -0.0125 0.03125
1.9 0.0125 0.03125
1.9 -0.034375 0.003125
1.9 0.034375 0.003125
1.9 -0.003125 0.034375
1.9 0.003125 0.034375
1.9 -0.025 0.025
1.9 0.025 0.025
1.9 -0.021875 0.028125
1.9 -0.028125 0.021875
1.9 0.028125 0.021875
1.9 0.021875 0.028125
1.9 -0.034375 0.009375
1.9 0.034375 0.009375
1.9 -0.009375 0.034375
1.9 0.009375 0.034375
1.9 -0.03125 0.01875
1.9 0.03125 0.01875
1.9 -0.01875 0.03125
1.9 0.01875 0.03125
1.9 -0.0375 0
1.9 0.0375 0
1.9 9.25186e-18 0.0375
1.9 -0.034375 0.015625
1.9 0.034375 0.015625
1.9 -0.015625 0.034375
1.9 0.015625 0.034375
1.9 -0.0375 0.00625
1.9 0.0375 0.00625
1.9 -0.00625 0.0375
1.9 0.00625 0.0375
1.9 -0.0375 0.0125
1.9 0.0375 0.0125
1.9 -0.0125 0.0375
1.9 0.0125 0.0375
1.9 0.028125 0.028125
1.9 -0.028125 0.028125
1.9 -0.03125 0.025
1.9 -0.025 0.03125
1.9 0.025 0.03125
1.9 0.03125 0.025
1.9 -0.034375 0.021875
1.9 0.034375 0.021875
1.9 -0.021875 0.034375
1.9 0.021875 0.034375
1.9 0.040625 0.003125
1.9 0.003125 0.040625
1.9 -0.040625 0.003125
1.9 -0.003125 0.040625
1.9 -0.009375 0.040625
1.9 -0.040625 0.009375
1.9 0.040625 0.009375
1.9 0.009375 0.040625
1.9 -0.0375 0.01875
1.9 0.0375 0.01875
1.9 -0.01875 0.0375
1.9 0.01875 0.0375
1.9 0.040625 0.015625
1.9 0.015625 0.040625
1.9 -0.040625 0.015625
1.9 -0.015625 0.040625
1.9 -0.04375 0
1.9 0.04375 0
1.9 6.93889e-18 0.04375
1.9 -0.04375 0.00625
1.9 0.04375 0.00625
1.9 -0.03125 0.03125
1.9 0.03125 0.03125
1.9 -0.00625 0.04375
1.9 0.00625 0.04375
1.9 -0.034375 0.028125
1.9 -0.028125 0.034375
1.9 0.034375 0.028125
1.9 0.028125 0.034375
1.9 -0.0375 0.025
1.9 0.0375 0.025
1.9 -0.025 0.0375
1.9 0.025 0.0375
1.9 -0.04375 0.0125
1.9 0.04375 0.0125
1.9 -0.0125 0.04375
1.9 0.0125 0.04375
1.9 -0.021875 0.040625
1.9 -0.040625 0.021875
1.9 0.040625 0.021875
1.9 0.021875 0.040625
1.9 -0.046875 0.003125
1.9 0.046875 0.003125
1.9 -0.003125 0.046875
1.9 0.003125 0.046875
1.9 -0.04375 0.01875
1.9 0.04375 0.01875
1.9 -0.01875 0.04375
1.9 0.01875 0.04375
1.9 -0.046875 0.009375
1.9 0.046875 0.009375
1.9 -0.009375 0.046875
1.9 0.009375 0.046875
1.9 -0.034375 0.034375
1.9 0.034375 0.034375
1.9 -0.0375 0.03125
1.9 0.0375 0.03125
1.9 -0.03125 0.0375
1.9 0.03125 0.0375
1.9 -0.046875 0.015625
1.9 0.040625 0.028125
1.9 0.028125 0.040625
1.9 0.046875 0.015625
1.9 -0.040625 0.028125
1.9 -0.028125 0.040625
1.9 -0.015625 0.046875
1.9 0.015625 0.046875
1.9 -0.05 0
1.9 0.05 0
1.9 4.62593e-18 0.05
1.9 -0.05 0.00625
1.9 0.05 0.00625
1.9 -0.04375 0.025
1.9 0.04375 0.025
1.9 -0.025 0.04375
1.9 0.025 0.04375
1.9 -0.00625 0.05
1.9 0.00625 0.05
1.9 -0.05 0.0125
1.9 0.05 0.0125
1.9 -0.0125 0.05
1.9 0.0125 0.05
1.9 -0.046875 0.021875
1.9 0.046875 0.021875
1.9 -0.021875 0.046875
1.9 0.021875 0.046875
1.9 -0.0375 0.0375
1.9 0.0375 0.0375
1.9 0.053125 0.003125
1.9 -0.034375 0.040625
1.9 0.003125 0.053125
1.9 -0.053125 0.003125
1.9 -0.040625 0.034375
1.9 0.040625 0.034375
1.9 0.034375 0.040625
1.9 -0.003125 0.053125
1.9 -0.05 0.01875
1.9 0.05 0.01875
1.9 -0.01875 0.05
1.9 0.01875 0.05
1.9 -0.04375 0.03125
1.9 0.04375 0.03125
1.9 -0.03125 0.04375
1.9 0.03125 0.04375
1.9 -0.009375 0.053125
1.9 -0.053125 0.009375
1.9 0.053125 0.009375
1.9 0.009375 0.053125
1.9 -0.046875 0.028125
1.9 0.046875 0.028125
1.9 -0.028125 0.046875
1.9 0.028125 0.046875
1.9 0.053125 0.015625
1.9 0.015625 0.053125
1.9 -0.053125 0.015625
1.9 -0.015625 0.053125
1.9 -0.05 0.025
1.9 0.05 0.025
1.9 -0.025 0.05
1.9 0.025 0.05
1.9 -0.05625 0
1.9 0.05625 0
1.9 2.31296e-18 0.05625
1.9 -0.05625 0.00625
1.9 0.05625 0.00625
1.9 -0.00625 0.05625
1.9 0.00625 0.05625
1.9 -0.021875 0.053125
1.9 -0.053125 0.021875
1.9 0.053125 0.021875
1.9 0.021875 0.053125
1.9 0.040625 0.040625
1.9 -0.040625 0.040625
1.9 -0.05625 0.0125
1.9 0.05625 0.0125
1.9 -0.0125 0.05625
1.9 0.0125 0.05625
1.9 -0.04375 0.0375
1.9 -0.0375 0.04375
1.9 0.0375 0.04375
1.9 0.04375 0.0375
1.9 -0.046875 0.034375
1.9 0.046875 0.034375
1.9 -0.034375 0.046875
1.9 0.034375 0.046875
1.9 -0.05 0.03125
1.9 0.05 0.03125
1.9 -0.03125 0.05
1.9 0.03125 0.05
1.9 -0.05625 0.01875
1.9 0.05625 0.01875
1.9 -0.01875 0.05625
1.9 0.01875 0.05625
1.9 -0.059375 0.003125
1.9 0.059375 0.003125
1.9 -0.003125 0.059375
1.9 0.003125 0.059375
1.9 0.053125 0.028125
1.9 0.028125 0.053125
1.9 -0.053125 0.028125
1.9 -0.028125 0.053125
1.9 -0.059375 0.009375
1.9 0.059375 0.009375
1.9 -0.009375 0.059375
1.9 0.009375 0.059375
1.9 -0.059375 0.015625
1.9 0.059375 0.015625
1.9 -0.015625 0.059375
1.9 0.015625 0.059375
1.9 -0.05625 0.025
1.9 0.05625 0.025
1.9 -0.025 0.05625
1.9 0.025 0.05625
1.9 -0.04375 0.04375
1.9 0.04375 0.04375
1.9 -0.046875 0.040625
1.9 -0.040625 0.046875
1.9 0.046875 0.040625
1.9 0.040625 0.046875
1.9 -0.0625 0
1.9 0.0625 0
1.9 -0.05 0.0375
1.9 0.05 0.0375
1.9 -0.0375 0.05
1.9 0.0375 0.05
1.9 0 0.0625
1.9 -0.0625 0.00625
1.9 0.0625 0.00625
1.9 -0.00625 0.0625
1.9 0.00625 0.0625
1.9 -0.034375 0.053125
1.9 -0.059375 0.021875
1.9 0.059375 0.021875
1.9 -0.053125 0.034375
1.9 0.053125 0.034375
1.9 -0.021875 0.059375
1.9 0.021875 0.059375
1.9 0.034375 0.053125
1.9 -0.0625 0.0125
1.9 0.0625 0.0125
1.9 -0.0125 0.0625
1.9 0.0125 0.0625
1.9 -0.05625 0.03125
1.9 0.05625 0.03125
1.9 -0.03125 0.05625
1.9 0.03125 0.05625
1.9 -0.0625 0.01875
1.9 0.0625 0.01875
1.9 -0.01875 0.0625
1.9 0.01875 0.0625
1.9 0.065625 0.003125
1.9 -0.059375 0.028125
1.9 0.003125 0.065625
1.9 -0.065625 0.003125
1.9 0.059375 0.028125
1.9 -0.028125 0.059375
1.9 0.028125 0.059375
1.9 -0.003125 0.065625
1.9 -0.009375 0.065625
1.9 -0.065625 0.009375
1.9 0.065625 0.009375
1.9 -0.046875 0.046875
1.9 0.046875 0.046875
1.9 0.009375 0.065625
1.9 -0.05 0.04375
1.9 0.05 0.04375
1.9 -0.04375 0.05
1.9 0.04375 0.05
1.9 0.053125 0.040625
1.9 0.040625 0.053125
1.9 -0.053125 0.040625
1.9 -0.040625 0.053125
1.9 -0.0625 0.025
1.9 0.0625 0.025
1.9 -0.025 0.0625
1.9 0.025 0.0625
1.9 0.065625 0.015625
1.9 0.015625 0.065625
1.9 -0.065625 0.015625
1.9 -0.015625 0.065625
1.9 -0.05625 0.0375
1.9 0.05625 0.0375
1.9 -0.0375 0.05625
1.9 0.0375 0.05625
1.9 -0.059375 0.034375
1.9 0.059375 0.034375
1.9 -0.034375 0.059375
1.9 0.034375 0.059375
1.9 -0.06875 0
1.9 0.06875 0
1.9 1.15648e-18 0.06875
1.9 -0.06875 0.00625
1.9 0.06875 0.00625
1.9 -0.00625 0.06875
1.9 0.00625 0.06875
1.9 -0.021875 0.065625
1.9 -0.065625 0.021875
1.9 0.065625 0.021875
1.9 0.021875 0.065625
1.9 -0.06875 0.0125
1.9 0.06875 0.0125
1.9 -0.0625 0.03125
1.9 0.0625 0.03125
1.9 -0.03125 0.0625
1.9 -0.0125 0.06875
1.9 0.0125 0.06875
1.9 0.03125 0.0625
1.9 -0.05 0.05
1.9 0.05 0.05
1.9 -0.046875 0.053125
1.9 -0.053125 0.046875
1.9 0.053125 0.046875
1.9 0.046875 0.053125
1.9 -0.05625 0.04375
1.9 0.05625 0.04375
1.9 -0.04375 0.05625
1.9 0.04375 0.05625
1.9 -0.06875 0.01875
1.9 0.06875 0.01875
1.9 -0.01875 0.06875
1.9 0.01875 0.06875
1.9 0.065625 0.028125
1.9 0.028125 0.065625
1.9 -0.065625 0.028125
1.9 -0.028125 0.065625
1.9 -0.071875 0.003125
1.9 -0.059375 0.040625
1.9 0.071875 0.003125
1.9 0.059375 0.040625
1.9 -0.040625 0.059375
1.9 0.040625 0.059375
1.9 -0.003125 0.071875
1.9 0.003125 0.071875
1.9 -0.071875 0.009375
1.9 0.071875 0.009375
1.9 -0.009375 0.071875
1.9 0.009375 0.071875
1.9 -0.0625 0.0375
1.9 0.0625 0.0375
1.9 -0.0375 0.0625
1.9 0.0375 0.0625
1.9 -0.06875 0.025
1.9 0.06875 0.025
1.9 -0.025 0.06875
1.9 0.025 0.06875
1.9 -0.071875 0.015625
1.9 0.071875 0.015625
1.9 -0.015625 0.071875
1.9 0.015625 0.071875
1.9 -0.034375 0.065625
1.9 -0.065625 0.034375
1.9 0.065625 0.034375
1.9 0.034375 0.065625
1.9 -0.075 0
1.9 0.075 0
1.9 2.31296e-18 0.075
1.9 0.053125 0.053125
1.9 -0.071875 0.021875
1.9 0.071875 0.021875
1.9 -0.053125 0.053125
1.9 -0.021875 0.071875
1.9 0.021875 0.071875
1.9 -0.05625 0.05
1.9 -0.05 0.05625
1.9 0.05 0.05625
1.9 0.05625 0.05
1.9 -0.075 0.00625
1.9 0.075 0.00625
1.9 -0.00625 0.075
1.9 0.00625 0.075
1.9 -0.06875 0.03125
1.9 0.06875 0.03125
1.9 -0.03125 0.06875
1.9 0.03125 0.06875
1.9 -0.059375 0.046875
1.9 0.059375 0.046875
1.9 -0.046875 0.059375
1.9 0.046875 0.059375
1.9 -0.075 0.0125
1.9 0.075 0.0125
1.9 -0.0125 0.075
1.9 0.0125 0.075
[...]
POINT_DATA 24833
FIELD attributes 1
U 3 24833 float
0 0 0
-0.0296504 0.0665155 0.032896
-0.0561542 0.0741307 0.0373444
0 0 0
-0.0885638 0.0888345 0.084267
0 0 0
-0.115146 0.0945197 0.0898198
-0.0606085 0.0810574 0.0759942
-0.0894349 0.0826075 0.0430195
-0.146975 0.109704 0.13854
-0.00540878 0.0573407 0.0268695
-0.121476 0.104988 0.128287
0 0 0
0 0 0
-0.133228 0.107814 0.160715
-0.168021 0.111636 0.140375
-0.0858992 0.0953859 0.115924
-0.14244 0.0980945 0.0914838
-0.0347002 0.0715266 0.0655125
-0.150616 0.108597 0.162955
-0.110307 0.103435 0.153405
0.0105922 0.0464196 0.0226573
-0.12647 0.109392 0.18713
-0.119349 0.0874945 0.0492847
-0.137992 0.107174 0.188905
-0.168282 0.107711 0.156164
-0.0835262 0.0950915 0.141875
-0.149476 0.105873 0.184
-0.192954 0.11064 0.133256
-0.058085 0.08696 0.0965988
-0.107382 0.103977 0.182279
0 0 0
0 0 0
-0.112086 0.0931152 0.199559
-0.166365 0.0978948 0.0894732
-0.0142121 0.0597545 0.0546003
-0.123829 0.0928152 0.194561
-0.0983635 0.0918016 0.199056
-0.144844 0.0873822 0.0504911
-0.0827383 0.0940434 0.172699
0.0187807 0.0335611 0.0205227
-0.162677 0.102694 0.167023
-0.100632 0.0791435 0.20793
-0.0832494 0.0767512 0.21427
-0.184057 0.104351 0.143927
-0.132243 0.0910001 0.18218
-0.0827609 0.0877141 0.192555
-0.0596432 0.0868997 0.124402
-0.208313 0.106063 0.124861
-0.0281365 0.0720771 0.0786223
-0.107216 0.0790704 0.197407
-0.0763522 0.0770866 0.212543
0 0 0
0 0 0
-0.0605187 0.0709606 0.2162
-0.18201 0.0943792 0.0872406
-0.000522726 0.0458484 0.0454085
-0.0676947 0.0722657 0.207426
-0.0533691 0.0692107 0.217901
-0.138649 0.0875777 0.165721
-0.0679304 0.0847818 0.178186
-0.172286 0.0980086 0.150566
-0.109604 0.0763632 0.180289
-0.069613 0.0945181 0.149687
-0.0645706 0.0757496 0.202697
-0.192469 0.097806 0.135198
-0.0406475 0.0774142 0.104138
-0.0705496 0.0711827 0.192445
-0.0493412 0.0680508 0.21114
0.0187682 0.0165316 0.0201296
-0.0274069 0.0625896 0.223908
-0.163735 0.0862673 0.0482969
-0.0307862 0.0653581 0.218691
-0.0321439 0.0654906 0.205675
-0.211146 0.0978048 0.125313
-0.0115033 0.0612236 0.0623594
-0.026468 0.0604155 0.220882
-0.110029 0.0732448 0.165005
-0.0547998 0.0748159 0.187659
0 0 0
0 0 0
-0.143274 0.0819763 0.151958
-0.0581152 0.0816208 0.157485
-0.0717513 0.0683032 0.175277
-0.00108966 0.057489 0.211027
-0.0463255 0.0678387 0.197381
-0.193404 0.0885186 0.0845041
0.0049326 0.0309007 0.0379957
0.00276852 0.0564702 0.200106
-0.00425028 0.0572963 0.213457
-0.0533371 0.0818378 0.125884
-0.0299741 0.0589516 0.208439
-0.178131 0.0893482 0.140054
-0.0332343 0.0638067 0.186408
-0.198019 0.088615 0.128626
-0.0261785 0.0674821 0.0851042
0.00499913 0.0551204 0.18479
-0.0100748 0.0578947 0.207025
-0.178605 0.0822754 0.0476502
0.0138094 -0.00480959 0.0181016
0.0316775 0.0497416 0.195633
0.022157 0.0522666 0.205875
-0.0725119 0.0634187 0.160334
-0.04725 0.0692898 0.178722
-0.0341378 0.0597981 0.169406
-0.112652 0.0673035 0.152207
-0.054711 0.0753112 0.166708
-0.0359577 0.0618377 0.190728
-0.220131 0.0877272 0.116757
-0.00134391 0.050657 0.0513923
0.0423267 0.0452905 0.180424
0.0147168 0.0539135 0.203162
-0.147097 0.0739572 0.142449
-0.0508129 0.077272 0.133374
0.00514594 0.0535263 0.168264
-0.0179043 0.0607451 0.194259
0 0 0
0 0 0
0.0603531 0.0187065 0.177302
-0.182666 0.0795798 0.132379
-0.0385298 0.0762098 0.100781
0.043048 0.0458937 0.166654
0.0014262 0.0582981 0.195617
-0.202961 0.0812216 0.081118
0.00104467 0.0145269 0.030754
0.06544 0.021333 0.170009
0.0541908 0.0183823 0.177449
-0.204159 0.0787373 0.121838
-0.019743 0.0585371 0.0673345
0.0678406 0.0255845 0.159436
0.044558 0.021779 0.171227
-0.0435316 0.0651943 0.169791
-0.0332289 0.0533282 0.154717
-0.0732687 0.0567886 0.149142
0.00542953 0.049954 0.152905
-0.0252653 0.0647849 0.176971
-0.0510505 0.0711829 0.155892
-0.11494 0.0595972 0.145156
-0.0566735 0.0757292 0.140121
0.0449078 0.0446069 0.150587
-0.00711159 0.0638928 0.182251
0.00163757 -0.0273858 0.0118263
0.0924701 -0.0158676 0.153977
-0.186591 0.0772446 0.047793
0.0951077 -0.0113148 0.153721
0.0926483 0.00161478 0.150258
-0.226516 0.0776392 0.112272
-0.00992444 0.0396461 0.0416959
0.0874192 -0.016783 0.14678
-0.150567 0.0650094 0.135348
-0.0450741 0.0744534 0.106708
0.0694521 0.0286215 0.146109
0.0314842 0.0302125 0.162533
-0.029174 0.0676354 0.0754688
0.0746697 -0.00831257 0.139349
-0.187324 0.0700031 0.125945
0.0933394 0.00953916 0.140409
0 0 0
0 0 0
0.10441 -0.0258156 0.149122
-0.207424 0.0729469 0.0797766
-0.0128219 0.000135257 0.0216305
0.00602634 0.0450267 0.140875
-0.0348151 0.0675777 0.156745
0.103529 -0.0171384 0.148928
0.103424 -0.0300542 0.142807
-0.0322543 0.0469254 0.14449
0.044177 0.0420827 0.13691
-0.0492857 0.068497 0.146947
-0.0144602 0.0682146 0.165113
-0.0742177 0.0494594 0.14144
-0.052489 0.0742632 0.129793
0.0718021 0.0296979 0.132495
0.0149501 0.0443385 0.154729
-0.208332 0.0685173 0.118063
-0.0232126 0.0491993 0.0490198
0.103223 -0.007313 0.142875
0.0985159 -0.0286513 0.131947
0.0965131 0.0144463 0.126786
-0.117339 0.0508575 0.137911
-0.0559191 0.0782391 0.11046
0.0569525 0.00697165 0.132917
-0.18768 0.0713569 0.0482981
-0.0176848 -0.0422607 0.00426069
0.113489 -0.0341389 0.147202
0.116571 -0.0419409 0.141588
-0.153783 0.0564351 0.130179
-0.039638 0.0705105 0.0794598
0.105631 0.000502514 0.132641
0.087129 -0.0210963 0.120509
-0.228907 0.0655469 0.110743
-0.025316 0.0305414 0.0287391
0.112872 -0.0247148 0.144529
0.117236 -0.0456254 0.128884
0.0454116 0.0377702 0.127381
-0.0319831 0.0684049 0.14513
0.00919013 0.0384511 0.132829
-0.0419321 0.071035 0.134325
0.075383 0.0288795 0.122022
-0.00590544 0.0590619 0.147554
-0.19058 0.0608801 0.123291
-0.0480777 0.0745875 0.121647
0.0244197 0.0382751 0.138637
-0.028436 0.058974 0.0501754
-0.0323377 0.0404576 0.138201
0.10161 0.0176556 0.115699
0.114032 -0.0156912 0.136306
0.114739 -0.0438843 0.112775
0 0 0
0 0 0
0.134998 -0.0539844 0.13541
-0.208076 0.0636369 0.0795584
-0.026723 -0.00856173 0.0128693
-0.075972 0.0425997 0.136298
-0.0475743 0.0773828 0.104013
0.111542 0.00660179 0.121553
0.0672955 -0.005936 0.113884
0.129657 -0.0423704 0.140757
0.139944 -0.0626739 0.121981
-0.210964 0.0566466 0.116437
-0.0325492 0.0410623 0.0321628
0.127319 -0.0312894 0.137978
0.139351 -0.0668077 0.104604
-0.119891 0.0439996 0.13357
-0.0450229 0.0771935 0.0817356
0.11864 -0.00628426 0.127064
0.102155 -0.03916 0.0969966
0.0805848 0.0257188 0.116967
-0.0203312 0.0667786 0.134978
-0.027301 -0.0481532 -0.00280258
0.110333 0.0180093 0.108099
0.160195 -0.0773754 0.118776
-0.185694 0.0646847 0.0494757
0.0559409 0.028651 0.121244
-0.038382 0.0726508 0.123578
-0.00159829 0.0613529 0.141336
0.149735 -0.0624824 0.134073
-0.157012 0.0470777 0.127424
-0.038509 0.0624467 0.0537197
0.128036 -0.0213691 0.130994
0.127717 -0.0636331 0.0891582
0.0114579 0.0317612 0.129657
-0.0385113 0.0750809 0.115072
0.119838 0.0100601 0.113777
0.0403058 0.0161642 0.117066
0.142533 -0.0481457 0.137225
-0.230022 0.0529591 0.109717
-0.0365903 0.0256256 0.02128
0.165774 -0.0857541 0.0986774
-0.0343205 0.0350842 0.135509
-0.0412776 0.0795112 0.102211
0.129406 0.000589484 0.116662
0.0856544 -0.0298307 0.0869851
-0.0398545 0.0491083 0.0284565
0.159654 -0.0919669 0.078079
-0.194347 0.0472003 0.121996
0.13984 -0.0366058 0.133851
-0.079064 0.0361404 0.13363
-0.041595 0.0742777 0.0768389
0.133336 -0.0127949 0.122668
0.105817 -0.0533437 0.0800673
0 0 0
0 0 0
0.184436 -0.0669358 0.131708
-0.206735 0.0534131 0.0788253
-0.0361481 -0.0128498 0.00704713
0.172698 -0.0542008 0.141171
0.193319 -0.072906 0.115722
0.139631 -0.026895 0.126755
-0.123231 0.036231 0.13084
-0.0407229 0.064511 0.0545115
0.134321 -0.0795213 0.0687823
-0.00936149 0.0647057 0.129866
0.110654 0.0184448 0.111145
-0.212625 0.0430648 0.115436
-0.0436969 0.035019 0.0212342
0.164059 -0.0392979 0.140019
0.19291 -0.0751692 0.0962744
0.0841936 0.0212767 0.11814
0.126139 0.0113206 0.112258
0.0134497 0.0394746 0.124055
-0.022049 0.0694621 0.121042
0.0565488 0.0228518 0.123672
-0.026308 0.0735742 0.112853
0.138004 0.00398618 0.114647
0.0527474 -0.00514049 0.101307
0.00978305 0.0258946 0.130402
-0.0353433 0.075046 0.092142
0.143869 -0.00806347 0.115598
0.0765658 -0.0364896 0.0833823
-0.160368 0.0361585 0.126877
-0.0436757 0.0548208 0.0325044
0.160311 -0.0263883 0.131645
0.174117 -0.0756686 0.0757467
-0.180481 0.0575266 0.0495248
-0.0310349 -0.0489288 -0.00706293
0.207229 -0.0617134 0.143213
0.220586 -0.0661718 0.130768
-0.0393568 0.075895 0.0688969
0.101137 -0.0648627 0.0675053
-0.038814 0.0292467 0.134601
0.145668 -0.0185897 0.120192
-0.230743 0.038482 0.106584
-0.0496662 0.0200574 0.016774
0.191295 -0.0444617 0.150173
0.22672 -0.0623224 0.114668
-0.195387 0.033618 0.123448
-0.0486766 0.0452847 0.0184264
0.18257 -0.0279783 0.138825
0.219493 -0.0606333 0.0936733
-0.0853207 0.0290336 0.132745
-0.0429215 0.0658932 0.0477046
0.163624 -0.0174354 0.121138
0.134841 -0.0770368 0.0605744
0.13175 0.00981169 0.115423
-0.00494481 0.0522396 0.122244
0.113631 0.0151594 0.116498
0.145564 0.00484215 0.11514
-0.0141446 0.0669179 0.117869
0.012011 0.0369805 0.12371
0 0 0
0 0 0
0.0848607 0.015916 0.122964
-0.0269545 0.0675412 0.103068
0.156427 -0.0083085 0.112131
0.0393446 -0.0104318 0.0996621
0.237342 -0.0662399 0.125189
-0.203667 0.0425207 0.077223
-0.0441551 -0.0166476 0.00137599
0.222098 -0.0590726 0.141827
0.250025 -0.0593874 0.102854
0.162399 -0.0182398 0.110891
-0.128509 0.0275847 0.131222
-0.045449 0.0603793 0.0286232
0.0557179 0.0163956 0.127823
-0.0344307 0.0712037 0.0846066
0.179203 -0.0140743 0.127149
0.183 -0.0705529 0.0624525
0.0667239 -0.0461245 0.0777313
-0.212269 0.030441 0.114558
-0.0547163 0.0279074 0.0141949
0.210782 -0.0400351 0.145125
0.252843 -0.041612 0.0847939
0.00515294 0.0197684 0.132472
-0.041202 0.06622 0.0624505
0.176109 -0.0141064 0.112417
0.0902184 -0.0693327 0.0622858
-0.162346 0.0258594 0.127655
-0.05158 0.0485888 0.0217903
0.206285 -0.0187044 0.13631
0.236188 -0.0300457 0.0787184
-0.0351304 -0.0448809 -0.0111447
-0.0507288 0.023072 0.134318
0.270314 -0.0641242 0.097064
-0.173739 0.0472535 0.0490842
-0.0461572 0.0627877 0.0387868
0.189993 -0.0101826 0.110457
0.120904 -0.0932102 0.0435574
0.251241 -0.07295 0.129711
0.238627 -0.0571653 0.144209
-0.229704 0.0268208 0.103699
-0.060789 0.00716201 0.00693759
0.157152 0.00080049 0.118909
-0.00828415 0.0403543 0.117529
0.28248 -0.0449313 0.0689167
0.136767 0.00564417 0.121334
-0.0222512 0.0507795 0.108382
0.169733 -0.0108961 0.113793
0.00520747 0.0105361 0.111275
-0.0329346 0.0584689 0.0969445
0.0258961 -0.0274428 0.0959001
0.113545 0.0092573 0.123864
0.17974 -0.0238225 0.107845
-0.0933117 0.0212523 0.132494
-0.048351 0.0540619 0.0333272
0.210982 -0.00208867 0.123301
0.189827 -0.0471363 0.068583
-0.0597333 0.0391256 0.0146415
0.282678 0.00143921 0.0619178
-0.193241 0.0228432 0.1245
0.230634 -0.030535 0.147292
0.0833571 0.00992933 0.129564
-0.0395018 0.0581367 0.0773054
0.19476 -0.0142259 0.109739
0.051084 -0.0517251 0.076636
0.0544366 0.0103593 0.133145
-0.0448633 0.0549934 0.0575118
0.206375 -0.00941356 0.108129
0.0721078 -0.0731333 0.0603491
0 0 0
0 0 0
0.281792 -0.0615875 0.0864411
-0.200281 0.0305309 0.0755208
-0.0517462 -0.0205135 -0.00511048
0.26362 -0.0602946 0.122705
0.294564 -0.0485101 0.0460183
0.232734 -0.00223011 0.131973
-0.132245 0.0193917 0.131449
-0.0524609 0.0495654 0.0254703
0.25958 0.00956415 0.0968302
-0.211442 0.018532 0.11292
-0.0635535 0.0154813 0.00668905
-0.00254946 0.0130382 0.134105
-0.0464467 0.0482547 0.0483001
0.226005 0.00641306 0.113312
0.247809 -0.0415347 0.142414
0.298026 -0.0207871 0.0171544
0.126559 -0.0655726 0.055276
0.180651 -0.0131512 0.120592
-0.0198746 0.0153861 0.107872
0.196477 -0.0254046 0.113276
0.16274 -0.00264047 0.126064
-0.0336415 0.0373769 0.101184
-0.00879308 -0.00774747 0.107962
0.137377 0.0013445 0.129613
-0.0382901 0.0394603 0.0899491
0.214659 -0.0130883 0.114518
0.0123505 -0.0325596 0.0944231
-0.163477 0.0154199 0.127187
-0.0598069 0.0346758 0.0186678
0.240136 -0.0134513 0.142237
0.287015 0.0112582 0.0346204
-0.0493368 0.0435151 0.0404287
0.195824 -0.0343463 0.071492
-0.0617634 0.0149608 0.132989
0.241997 0.0181323 0.123625
-0.167866 0.0336996 0.0489638
0.109729 0.0037051 0.133424
-0.0431335 -0.0353982 -0.00868499
-0.0457786 0.0478807 0.0701589
0.230525 -0.00542785 0.112091
0.0396083 -0.0601998 0.0725637
0.295646 -0.0572876 0.0831886
0.309967 -0.051988 0.0358004
-0.229812 0.0143496 0.100336
-0.0679318 -0.00893667 -0.00754978
0.268968 -0.0537753 0.133711
0.315496 -0.0329971 -0.0177079
0.0781009 0.00387007 0.136026
-0.0437912 0.0375536 0.0646604
0.247992 0.0123921 0.11137
0.0727645 -0.0636223 0.058769
-0.0998559 0.0125476 0.131138
-0.0534013 0.0327356 0.0327913
0.24474 0.0121738 0.132335
0.255011 0.0172077 0.0696016
-0.193011 0.0101144 0.123145
-0.0657598 0.0245741 0.0127269
0.253009 -0.0246632 0.144443
0.311449 -0.00665938 -0.0445091
0.265654 0.0271161 0.111038
0.0478577 0.0037606 0.135969
-0.0454296 0.0317227 0.0564731
0.117402 -0.0616005 0.0457055
0 0 0
0 0 0
0.322112 -0.0211875 0.0540053
-0.0287798 -0.00843935 0.104814
-0.135412 0.00933019 0.129655
-0.0612736 0.0254379 0.0218325
0.206234 -0.0253602 0.12412
0.244166 0.00362298 0.145238
0.294352 0.0406889 0.0242428
0.185525 -0.013889 0.130467
0.230135 -0.0100147 0.125064
-0.0149425 -0.0221306 0.105017
-0.0326227 0.00492451 0.101374
-0.198356 0.0166478 0.0730606
-0.0557374 -0.0203892 -0.00879435
0.30673 -0.0276254 0.0989728
0.326261 -0.00553327 0.00739973
-0.0117636 0.00531455 0.134139
-0.048159 0.0231961 0.0483248
0.261464 0.0301571 0.121733
0.196397 -0.00869207 0.0716618
0.163493 -0.00494391 0.135099
-0.0408058 0.0141147 0.0915093
0.251896 0.00230153 0.124857
-0.00730929 -0.0348482 0.101267
-0.212063 0.00495802 0.109182
-0.0654348 0.0024876 -0.00215495
0.285238 -0.0203168 0.133406
0.322384 0.00974764 -0.0359835
0.132952 -0.00278876 0.138622
-0.0384955 0.0147781 0.0824344
0.270366 0.0193951 0.118345
0.0219739 -0.0504416 0.0806414
-0.0700027 0.0065077 0.13046
-0.0390934 0.0156178 0.0744979
0.0619398 -0.0595557 0.0564578
-0.050534 0.0124239 0.0434338
0.100381 -0.00234477 0.141566
0.289413 0.0372935 0.114222
0.260063 0.0291701 0.128502
0.270288 0.052924 0.0858415
-0.166487 0.00267863 0.123266
-0.0618051 0.0159484 0.0130928
0.266054 0.00399459 0.14355
0.306533 0.0291401 -0.028715
-0.0465884 -0.0244794 -0.00565575
0.34211 0.0184538 0.0309217
-0.165094 0.0183783 0.0487088
0.340724 0.00607206 0.0661105
0.0683417 -0.00301089 0.140076
-0.0426065 0.00957664 0.0641739
0.284139 0.0410205 0.1166
0.120964 -0.0357658 0.0593142
0.321581 -0.00551081 0.112881
-0.23065 0.000163627 0.0942335
-0.0652961 -0.0127425 -0.0132869
0.337469 0.0443982 -0.0194153
-0.105772 0.00181122 0.126287
-0.0562668 0.0117643 0.0286489
0.258734 0.0288253 0.138447
0.28405 0.0559655 0.0314607
0.23839 -0.00690306 0.137382
-0.0217312 -0.0289399 0.107017
-0.0627515 0.00705546 -0.000510026
0.209632 -0.0226114 0.136584
0.325123 0.0342488 -0.0623018
-0.194779 -0.00479554 0.119012
0.0368538 -0.00397093 0.137139
-0.0473356 0.00512277 0.0529635
0.265934 0.00840443 0.138004
-0.0272638 -0.0233542 0.10799
-0.014888 -0.0374874 0.106027
0.278144 0.0462101 0.123768
0.202073 0.00825449 0.0836081
0.297394 0.00268202 0.142589
0.184565 -0.0134634 0.140814
-0.0291651 -0.01708 0.0971001
0.286307 0.0255593 0.130636
-0.00897138 -0.040516 0.100773
0.30963 0.0434134 0.122209
0.158206 -0.00757147 0.1444
-0.0283044 -0.0185006 0.0935716
-0.0063432 -0.0471626 0.0922776
0.269648 0.0343365 0.141929
-0.142747 -0.0039345 0.121252
-0.0574355 0.00672597 0.0183218
0.295207 0.0482822 -0.0322918
0 0 0
0 0 0
-0.0231874 -0.00448939 0.129896
-0.05124 0.00152192 0.0445899
0.26897 0.0443623 0.129076
0.345499 0.0651309 0.0341905
0.250877 0.0574086 0.0786804
-0.198203 -0.000244984 0.0698313
-0.0575608 -0.0132124 -0.00616119
0.123963 -0.00759868 0.145638
-0.0331435 -0.0128433 0.0800973
0.307575 0.048684 0.116573
0.0435907 -0.041607 0.0678082
0.335898 0.0553735 0.082599
0.343223 0.0809061 -0.00850432
-0.213527 -0.0121526 0.10383
-0.065251 -0.00103026 -0.004382
0.31048 0.0548274 0.124117
0.335405 0.0881724 -0.0431964
0.0882746 -0.00948847 0.14563
-0.0385675 -0.0141567 0.0727612
0.303344 0.0534621 0.117372
0.102441 -0.0301615 0.0514852
-0.0558239 0.00246937 0.0310077
0.276354 0.0819668 0.0480504
-0.0749254 -0.0046585 0.123781
0.261061 0.0481714 0.13812
-0.170818 -0.0129653 0.115661
-0.0612538 0.00384628 0.00913951
0.281368 0.0605053 0.137565
0.317772 0.0819791 -0.0515405
0.0527045 -0.0122539 0.137637
-0.0435039 -0.0146695 0.0602137
0.289631 0.0527795 0.122602
0.187904 0.0273247 0.0806296
0.271761 0.011955 0.150818
-0.0159931 -0.0464788 0.109237
0.239176 -0.00458368 0.148624
-0.0193603 -0.0405924 0.0991687
0.295437 0.0297241 0.14499
-0.0127064 -0.0435924 0.10573
-0.0202863 -0.0405799 0.0953292
-0.00734506 -0.0425658 0.10352
0.206927 -0.0187269 0.147173
0.317769 0.0481178 0.137472
-0.165801 0.000706445 0.0460701
-0.0498265 -0.0134639 -0.00131301
0.349919 0.110759 0.0439956
0.349242 0.125238 -0.00426581
-0.231267 -0.0202283 0.0903127
-0.0685324 -0.00216387 -0.00438912
0.331369 0.110173 0.107409
0.344071 0.135534 -0.041258
-0.112424 -0.0113381 0.116736
-0.0584701 -0.00115298 0.0250581
0.178234 -0.0134067 0.149684
-0.0239747 -0.033585 0.0855104
0.325089 0.0545916 0.12361
-0.00562015 -0.0375827 0.0896615
0.265843 0.0647127 0.132306
0.290953 0.0862812 -0.0157837
0.276612 0.0538974 0.125912
0.0153247 -0.0158358 0.128205
-0.0512665 -0.0139283 0.0509545
0.254792 0.0864891 0.0972213
-0.197411 -0.0237502 0.111762
-0.0644241 0.00372989 0.000658033
0.148989 -0.01099 0.150958
-0.0266087 -0.0343339 0.0795585
0.327911 0.0605668 0.112487
0.0163255 -0.0295482 0.0710121
0.291576 0.111965 0.133588
0.334956 0.138508 -0.0498106
0.111952 -0.0147526 0.146253
-0.032737 -0.0308141 0.0695718
0.31428 0.0588264 0.117988
0.094271 -0.00144351 0.0698715
-0.0362941 -0.0162933 0.119813
-0.0538877 -0.0130699 0.0411098
0.269749 0.0657907 0.123061
0.265999 0.0982806 0.049214
-0.148336 -0.0193811 0.11062
-0.0604042 -0.00212621 0.0180882
0.266853 0.0930378 0.132154
0.315802 0.106877 -0.0617577
0 0 0
0 0 0
0.337761 0.161139 0.012626
-0.200478 -0.0189247 0.0667975
-0.0627538 -0.0062988 -0.000567417
0.325767 0.154295 0.0667833
0.341137 0.163388 -0.0308406
-0.036846 -0.0357159 0.0641754
0.192309 0.0447169 0.0902036
0.0703649 -0.0197204 0.139574
0.300424 0.0575483 0.123353
-0.216839 -0.0315069 0.0981211
-0.0703827 0.000514234 0.00274007
0.299393 0.0297349 0.156532
-0.0115696 -0.0482163 0.0905198
0.301877 0.143637 0.100838
0.334738 0.165001 -0.0519569
0.326283 0.0504193 0.153664
0.268384 0.0110486 0.159919
-0.0138981 -0.0519566 0.0841184
-0.0125995 -0.0478377 0.104137
0.232516 -0.00451745 0.157176
-0.0156758 -0.0444949 0.0771636
0.335632 0.0571052 0.13812
-0.0164503 -0.0343737 0.0975815
-0.0836886 -0.0173783 0.111292
-0.0602168 -0.0116811 0.0328146
0.26581 0.0833049 0.117019
0.276448 0.107999 -0.0171356
0.198812 -0.0163383 0.156204
-0.0206996 -0.0409255 0.0735825
0.345046 0.0662686 0.122272
-0.0251179 -0.0310542 0.0918367
-0.175294 -0.0306555 0.106353
-0.0663349 -0.000720466 0.0131708
0.0356091 -0.022597 0.127688
-0.043219 -0.0285242 0.0525094
0.287091 0.0655517 0.119147
0.234078 0.0888332 0.0880326
0.276725 0.126752 0.107014
0.32407 0.155921 -0.0519575
0.168747 -0.016089 0.153737
-0.0229281 -0.0372487 0.0668532
0.336403 0.0669229 0.118725
0.0156535 -0.00715063 0.0757408
-0.0558577 -0.00826482 -0.000495632
0.334765 0.201117 -0.0255569
-0.169111 -0.0170123 0.0431972
0.317119 0.207439 0.0363313
-0.118859 -0.0261829 0.105651
-0.0621269 -0.00938053 0.026619
0.267455 0.108144 0.103761
0.303199 0.137794 -0.0307084
0.325439 0.0637282 0.118738
0.304662 0.18881 0.0793973
-0.235735 -0.0391649 0.0876101
-0.0767984 -0.0013026 0.00392809
-0.00188736 -0.0273006 0.115974
-0.0482435 -0.0291395 0.0496625
0.140177 -0.0188113 0.148849
-0.0289257 -0.0390498 0.0617922
0.275512 0.0777889 0.111191
0.2564 0.116668 0.0687197
0.0660087 0.00921881 0.0667849
0.33647 0.191662 -0.0522816
-0.071776 0.00179351 0.0107633
0.323456 0.194301 -0.0644774
-0.202943 -0.0428844 0.102799
0.2799 0.163598 0.0829588