# vtk DataFile Version 2.0
sampleSurface
ASCII
DATASET POLYDATA
POINTS 20801 float
2.1 6.93889e-18 0
2.1 0.003125 0.003125
2.1 9.25186e-18 0.00625
2.1 0.00625 0
2.1 0.00625 0.00625
2.1 0.009375 0.003125
2.1 0.003125 0.009375
2.1 0.0125 0
2.1 1.15648e-17 0.0125
2.1 0.009375 0.009375
2.1 0.0125 0.00625
2.1 0.00625 0.0125
2.1 0.015625 0.003125
2.1 0.003125 0.015625
2.1 0.0125 0.0125
2.1 0.009375 0.015625
2.1 0.015625 0.009375
2.1 0.01875 0
2.1 8.09538e-18 0.01875
2.1 0.01875 0.00625
2.1 0.00625 0.01875
2.1 0.015625 0.015625
2.1 0.003125 0.021875
2.1 0.021875 0.003125
2.1 0.0125 0.01875
2.1 0.01875 0.0125
2.1 0.009375 0.021875
2.1 0.021875 0.009375
2.1 0.025 0
2.1 4.62593e-18 0.025
2.1 0.025 0.00625
2.1 0.00625 0.025
2.1 0.01875 0.01875
2.1 0.021875 0.015625
2.1 0.015625 0.021875
2.1 0.025 0.0125
2.1 0.0125 0.025
2.1 0.028125 0.003125
2.1 0.003125 0.028125
2.1 0.009375 0.028125
2.1 0.028125 0.009375
2.1 0.021875 0.021875
2.1 0.03125 0
2.1 0.025 0.01875
2.1 4.62593e-18 0.03125
2.1 0.01875 0.025
2.1 0.03125 0.00625
2.1 0.00625 0.03125
2.1 0.015625 0.028125
2.1 0.028125 0.015625
2.1 0.03125 0.0125
2.1 0.0125 0.03125
2.1 0.003125 0.034375
2.1 0.034375 0.003125
2.1 0.025 0.025
2.1 0.009375 0.034375
2.1 0.034375 0.009375
2.1 0.028125 0.021875
2.1 0.021875 0.028125
2.1 0.03125 0.01875
2.1 0.01875 0.03125
2.1 0.0375 0
2.1 4.62593e-18 0.0375
2.1 0.034375 0.015625
2.1 0.015625 0.034375
2.1 0.0375 0.00625
2.1 0.00625 0.0375
2.1 0.0375 0.0125
2.1 0.0125 0.0375
2.1 0.028125 0.028125
2.1 0.025 0.03125
2.1 0.03125 0.025
2.1 0.040625 0.003125
2.1 0.003125 0.040625
2.1 0.034375 0.021875
2.1 0.021875 0.034375
2.1 0.009375 0.040625
2.1 0.040625 0.009375
2.1 0.0375 0.01875
2.1 0.01875 0.0375
2.1 0.015625 0.040625
2.1 0.040625 0.015625
2.1 0.04375 0
2.1 4.62593e-18 0.04375
2.1 0.04375 0.00625
2.1 0.03125 0.03125
2.1 0.00625 0.04375
2.1 0.034375 0.028125
2.1 0.028125 0.034375
2.1 0.0375 0.025
2.1 0.025 0.0375
2.1 0.04375 0.0125
2.1 0.0125 0.04375
2.1 0.040625 0.021875
2.1 0.021875 0.040625
2.1 0.003125 0.046875
2.1 0.046875 0.003125
2.1 0.04375 0.01875
2.1 0.01875 0.04375
2.1 0.009375 0.046875
2.1 0.046875 0.009375
2.1 0.034375 0.034375
2.1 0.0375 0.03125
2.1 0.03125 0.0375
2.1 0.040625 0.028125
2.1 0.028125 0.040625
2.1 0.046875 0.015625
2.1 0.015625 0.046875
2.1 0.05 0
2.1 4.62593e-18 0.05
2.1 0.05 0.00625
2.1 0.04375 0.025
2.1 0.025 0.04375
2.1 0.00625 0.05
2.1 0.05 0.0125
2.1 0.0125 0.05
2.1 0.046875 0.021875
2.1 0.021875 0.046875
2.1 0.0375 0.0375
2.1 0.040625 0.034375
2.1 0.034375 0.040625
2.1 0.053125 0.003125
2.1 0.003125 0.053125
2.1 0.05 0.01875
2.1 0.01875 0.05
2.1 0.04375 0.03125
2.1 0.03125 0.04375
2.1 0.009375 0.053125
2.1 0.053125 0.009375
2.1 0.046875 0.028125
2.1 0.028125 0.046875
2.1 0.015625 0.053125
2.1 0.053125 0.015625
2.1 0.05 0.025
2.1 0.025 0.05
2.1 0.05625 0
2.1 6.93889e-18 0.05625
2.1 0.05625 0.00625
2.1 0.00625 0.05625
2.1 0.040625 0.040625
2.1 0.053125 0.021875
2.1 0.021875 0.053125
2.1 0.05625 0.0125
2.1 0.0375 0.04375
2.1 0.04375 0.0375
2.1 0.0125 0.05625
2.1 0.046875 0.034375
2.1 0.034375 0.046875
2.1 0.05 0.03125
2.1 0.03125 0.05
2.1 0.05625 0.01875
2.1 0.01875 0.05625
2.1 0.003125 0.059375
2.1 0.059375 0.003125
2.1 0.009375 0.059375
2.1 0.059375 0.009375
2.1 0.053125 0.028125
2.1 0.028125 0.053125
2.1 0.059375 0.015625
2.1 0.015625 0.059375
2.1 0.05625 0.025
2.1 0.025 0.05625
2.1 0.04375 0.04375
2.1 0.046875 0.040625
2.1 0.040625 0.046875
2.1 0.0625 0
2.1 0.05 0.0375
2.1 0.0375 0.05
2.1 9.25186e-18 0.0625
2.1 0.0625 0.00625
2.1 0.00625 0.0625
2.1 0.059375 0.021875
2.1 0.021875 0.059375
2.1 0.053125 0.034375
2.1 0.034375 0.053125
2.1 0.0625 0.0125
2.1 0.0125 0.0625
2.1 0.05625 0.03125
2.1 0.03125 0.05625
2.1 0.0625 0.01875
2.1 0.01875 0.0625
2.1 0.065625 0.003125
2.1 0.003125 0.065625
2.1 0.059375 0.028125
2.1 0.028125 0.059375
2.1 0.009375 0.065625
2.1 0.065625 0.009375
2.1 0.046875 0.046875
2.1 0.05 0.04375
2.1 0.04375 0.05
2.1 0.053125 0.040625
2.1 0.040625 0.053125
2.1 0.0625 0.025
2.1 0.025 0.0625
2.1 0.065625 0.015625
2.1 0.015625 0.065625
2.1 0.05625 0.0375
2.1 0.0375 0.05625
2.1 0.059375 0.034375
2.1 0.034375 0.059375
2.1 0.06875 0
2.1 6.93889e-18 0.06875
2.1 0.06875 0.00625
2.1 0.00625 0.06875
2.1 0.065625 0.021875
2.1 0.021875 0.065625
2.1 0.06875 0.0125
2.1 0.0625 0.03125
2.1 0.0125 0.06875
2.1 0.03125 0.0625
2.1 0.05 0.05
2.1 0.053125 0.046875
2.1 0.046875 0.053125
2.1 0.06875 0.01875
2.1 0.05625 0.04375
2.1 0.04375 0.05625
2.1 0.01875 0.06875
2.1 0.065625 0.028125
2.1 0.028125 0.065625
2.1 0.003125 0.071875
2.1 0.059375 0.040625
2.1 0.040625 0.059375
2.1 0.071875 0.003125
2.1 0.009375 0.071875
2.1 0.071875 0.009375
2.1 0.0625 0.0375
2.1 0.0375 0.0625
2.1 0.06875 0.025
2.1 0.025 0.06875
2.1 0.071875 0.015625
2.1 0.015625 0.071875
2.1 0.065625 0.034375
2.1 0.034375 0.065625
2.1 0.075 0
2.1 4.62593e-18 0.075
2.1 0.071875 0.021875
2.1 0.021875 0.071875
2.1 0.053125 0.053125
2.1 0.075 0.00625
2.1 0.05 0.05625
2.1 0.05625 0.05
2.1 0.00625 0.075
2.1 0.06875 0.03125
2.1 0.03125 0.06875
2.1 0.059375 0.046875
2.1 0.046875 0.059375
2.1 0.075 0.0125
2.1 0.0125 0.075
2.1 0.0625 0.04375
2.1 0.04375 0.0625
2.1 0.065625 0.040625
2.1 0.040625 0.065625
2.1 0.071875 0.028125
2.1 0.028125 0.071875
2.1 0.075 0.01875
2.1 0.01875 0.075
2.1 0.078125 0.003125
2.1 0.003125 0.078125
2.1 0.06875 0.0375
2.1 0.0375 0.06875
2.1 0.009375 0.078125
2.1 0.078125 0.009375
2.1 0.075 0.025
2.1 0.025 0.075
2.1 0.05625 0.05625
2.1 0.078125 0.015625
2.1 0.015625 0.078125
2.1 0.071875 0.034375
2.1 0.059375 0.053125
2.1 0.053125 0.059375
2.1 0.034375 0.071875
2.1 0.0625 0.05
2.1 0.05 0.0625
2.1 0.065625 0.046875
2.1 0.046875 0.065625
2.1 0.078125 0.021875
2.1 0.021875 0.078125
2.1 0.08125 0
2.1 0.075 0.03125
2.1 3.46945e-18 0.08125
2.1 0.03125 0.075
2.1 0.08125 0.00625
2.1 0.06875 0.04375
2.1 0.04375 0.06875
2.1 0.00625 0.08125
2.1 0.08125 0.0125
2.1 0.0125 0.08125
2.1 0.071875 0.040625
2.1 0.040625 0.071875
2.1 0.078125 0.028125
2.1 0.028125 0.078125
2.1 0.08125 0.01875
2.1 0.01875 0.08125
2.1 0.075 0.0375
2.1 0.0375 0.075
2.1 0.059375 0.059375
2.1 0.0625 0.05625
2.1 0.05625 0.0625
2.1 0.065625 0.053125
2.1 0.053125 0.065625
2.1 0.003125 0.084375
2.1 0.084375 0.003125
2.1 0.009375 0.084375
2.1 0.084375 0.009375
2.1 0.08125 0.025
2.1 0.06875 0.05
2.1 0.05 0.06875
2.1 0.025 0.08125
2.1 0.078125 0.034375
2.1 0.034375 0.078125
2.1 0.084375 0.015625
2.1 0.071875 0.046875
2.1 0.046875 0.071875
2.1 0.015625 0.084375
2.1 0.075 0.04375
2.1 0.04375 0.075
2.1 0.08125 0.03125
2.1 0.03125 0.08125
2.1 0.084375 0.021875
2.1 0.021875 0.084375
2.1 0.0875 0
2.1 2.31296e-18 0.0875
2.1 0.0875 0.00625
2.1 0.00625 0.0875
2.1 0.078125 0.040625
2.1 0.040625 0.078125
2.1 0.0875 0.0125
2.1 0.0625 0.0625
2.1 0.0125 0.0875
2.1 0.065625 0.059375
2.1 0.059375 0.065625
2.1 0.06875 0.05625
2.1 0.05625 0.06875
2.1 0.084375 0.028125
2.1 0.028125 0.084375
2.1 0.071875 0.053125
2.1 0.053125 0.071875
2.1 0.0875 0.01875
2.1 0.08125 0.0375
2.1 0.0375 0.08125
2.1 0.01875 0.0875
2.1 0.075 0.05
2.1 0.05 0.075
2.1 0.090625 0.003125
2.1 0.003125 0.090625
2.1 0.0875 0.025
2.1 0.025 0.0875
2.1 0.009375 0.090625
2.1 0.090625 0.009375
2.1 0.084375 0.034375
2.1 0.078125 0.046875
2.1 0.046875 0.078125
2.1 0.034375 0.084375
2.1 0.090625 0.015625
2.1 0.015625 0.090625
2.1 0.08125 0.04375
2.1 0.04375 0.08125
2.1 0.065625 0.065625
2.1 0.0875 0.03125
2.1 0.0625 0.06875
2.1 0.06875 0.0625
2.1 0.03125 0.0875
2.1 0.071875 0.059375
2.1 0.059375 0.071875
2.1 0.021875 0.090625
2.1 0.090625 0.021875
2.1 0.084375 0.040625
2.1 0.040625 0.084375
2.1 0.09375 0
2.1 0.075 0.05625
2.1 0.05625 0.075
2.1 1.15648e-18 0.09375
2.1 0.09375 0.00625
2.1 0.00625 0.09375
2.1 0.078125 0.053125
2.1 0.053125 0.078125
2.1 0.09375 0.0125
2.1 0.0125 0.09375
2.1 0.090625 0.028125
2.1 0.028125 0.090625
2.1 0.0875 0.0375
2.1 0.0375 0.0875
2.1 0.08125 0.05
2.1 0.05 0.08125
2.1 0.09375 0.01875
2.1 0.01875 0.09375
2.1 0.084375 0.046875
2.1 0.046875 0.084375
2.1 0.003125 0.096875
2.1 0.096875 0.003125
2.1 0.090625 0.034375
2.1 0.034375 0.090625
2.1 0.09375 0.025
2.1 0.025 0.09375
2.1 0.06875 0.06875
2.1 0.009375 0.096875
2.1 0.096875 0.009375
2.1 0.071875 0.065625
2.1 0.065625 0.071875
2.1 0.075 0.0625
2.1 0.0625 0.075
2.1 0.0875 0.04375
2.1 0.04375 0.0875
2.1 0.078125 0.059375
2.1 0.096875 0.015625
2.1 0.059375 0.078125
2.1 0.015625 0.096875
2.1 0.09375 0.03125
2.1 0.08125 0.05625
2.1 0.05625 0.08125
2.1 0.03125 0.09375
2.1 0.090625 0.040625
2.1 0.040625 0.090625
2.1 0.096875 0.021875
2.1 0.021875 0.096875
2.1 0.084375 0.053125
2.1 0.053125 0.084375
2.1 0 0.1
2.1 0.1 0
2.1 0.00625 0.1
2.1 0.1 0.00625
2.1 0.0125 0.1
2.1 0.1 0.0125
2.1 0.0875 0.05
2.1 0.05 0.0875
2.1 0.096875 0.028125
2.1 0.028125 0.096875
2.1 0.09375 0.0375
2.1 0.0375 0.09375
2.1 0.071875 0.071875
2.1 0.01875 0.1
2.1 0.1 0.01875
2.1 0.075 0.06875
2.1 0.06875 0.075
2.1 0.078125 0.065625
2.1 0.065625 0.078125
2.1 0.090625 0.046875
2.1 0.046875 0.090625
2.1 0.08125 0.0625
2.1 0.0625 0.08125
2.1 0.034375 0.096875
2.1 0.096875 0.034375
2.1 0.025 0.1
2.1 0.1 0.025
2.1 0.084375 0.059375
2.1 0.059375 0.084375
2.1 0.003125 0.103125
2.1 0.09375 0.04375
2.1 0.04375 0.09375
2.1 0.009375 0.103125
2.1 0.0875 0.05625
2.1 0.05625 0.0875
2.1 0.015625 0.103125
2.1 0.03125 0.1
2.1 0.1 0.03125
2.1 0.096875 0.040625
2.1 0.040625 0.096875
2.1 0.090625 0.053125
2.1 0.053125 0.090625
2.1 0.021875 0.103125
2.1 0.075 0.075
2.1 0.078125 0.071875
2.1 0.071875 0.078125
2.1 0.09375 0.05
2.1 0.05 0.09375
2.1 3.46945e-18 0.10625
2.1 0.08125 0.06875
2.1 0.06875 0.08125
2.1 0.00625 0.10625
2.1 0.0375 0.1
2.1 0.1 0.0375
2.1 0.084375 0.065625
2.1 0.065625 0.084375
2.1 0.028125 0.103125
2.1 0.0125 0.10625
2.1 0.0875 0.0625
2.1 0.0625 0.0875
2.1 0.096875 0.046875
2.1 0.046875 0.096875
2.1 0.01875 0.10625
2.1 0.090625 0.059375
2.1 0.059375 0.090625
2.1 0.034375 0.103125
2.1 0.04375 0.1
2.1 0.1 0.04375
2.1 0.025 0.10625
2.1 0.09375 0.05625
2.1 0.05625 0.09375
2.1 0.003125 0.109375
2.1 0.009375 0.109375
2.1 0.078125 0.078125
2.1 0.096875 0.053125
2.1 0.053125 0.096875
2.1 0.015625 0.109375
[...]
POINT_DATA 20801
FIELD attributes 1
U 3 20801 float
0 0 0
-0.0105158 0.00122438 -0.00880591
0 0 0
0 0 0
0.0335775 -0.0173018 0.0090364
0.0118948 -0.00728666 -0.0037269
0.0306628 -0.0102046 0.0130671
0 0 0
0 0 0
0.102268 -0.0529401 0.0356113
0.0839315 -0.0431096 0.0235606
0.0899473 -0.0357943 0.0485328
0.0310976 -0.0262221 0.00166619
0.0534704 -0.0132203 0.0523889
0.180418 -0.0719008 0.0710605
0.173388 -0.066812 0.093064
0.190465 -0.0859893 0.0606916
0 0 0
0 0 0
0.135372 -0.0601768 0.0334108
0.121264 -0.0372956 0.0910374
0.25555 -0.0818617 0.0948751
0.0651657 -0.0111414 0.0887572
0.0611633 -0.0399135 0.0107589
0.217518 -0.0687602 0.105996
0.250213 -0.0858269 0.070626
0.193033 -0.0580089 0.129939
0.258762 -0.0885824 0.0605267
0 0 0
0 0 0
0.176922 -0.0660376 0.0376737
0.124292 -0.0305626 0.121738
0.26852 -0.0777254 0.0847001
0.296076 -0.086874 0.0664107
0.2481 -0.0683583 0.106105
0.297686 -0.0880615 0.0638533
0.210669 -0.0582996 0.121558
0.0888799 -0.046354 0.0186905
0.0603811 -0.00662496 0.119292
0.178588 -0.0464751 0.148962
0.298884 -0.0893007 0.0607189
0.274354 -0.0738075 0.0714096
0 0 0
0.308883 -0.0848184 0.0674325
0 0 0
0.248389 -0.0732711 0.0835032
0.204752 -0.0669305 0.0406943
0.109196 -0.0230969 0.142517
0.222957 -0.0603562 0.101227
0.337022 -0.087489 0.0677571
0.334782 -0.084202 0.0615763
0.185812 -0.049477 0.129309
0.0416159 -0.00226441 0.139956
0.104391 -0.0544481 0.0204869
0.286205 -0.0897063 0.0634461
0.156201 -0.037023 0.161858
0.326853 -0.077619 0.0628809
0.328079 -0.0911031 0.0641527
0.248144 -0.0905626 0.055271
0.351315 -0.0884839 0.0568096
0.216133 -0.0775047 0.0829841
0 0 0
0 0 0
0.376369 -0.0823991 0.0549484
0.185503 -0.0540538 0.105191
0.223233 -0.0614257 0.0422467
0.0896004 -0.0179637 0.156286
0.362288 -0.0677884 0.060131
0.153392 -0.0459702 0.138744
0.294244 -0.103352 0.0629513
0.24339 -0.1098 0.0653389
0.323474 -0.102007 0.0512322
0.116435 -0.062968 0.0150764
0.0333665 0.000363359 0.152482
0.363789 -0.0929442 0.0403803
0.20793 -0.105046 0.0702475
0.127218 -0.0329309 0.170848
0.345252 -0.0506677 0.0705424
0.381253 -0.0793593 0.0448344
0.172555 -0.0864749 0.0971243
0.144648 -0.0598732 0.117078
0.400677 -0.0604677 0.0521524
0 0 0
0 0 0
0.236023 -0.0530266 0.0422756
0.266453 -0.132309 0.0547138
0.067351 -0.0143962 0.166528
0.307786 -0.120627 0.0374444
0.223244 -0.140239 0.0728857
0.343232 -0.10013 0.0343732
0.186699 -0.132616 0.0862886
0.37818 -0.040796 0.0652247
0.120288 -0.0468878 0.150185
0.384179 -0.0816262 0.0318564
0.152138 -0.126927 0.0959807
0.0107201 0.00506233 0.163031
0.127932 -0.077095 0.00356998
0.397435 -0.0554687 0.0428657
0.129048 -0.0950049 0.116728
0.0980996 -0.0300795 0.179752
0.354472 -0.0213758 0.0799135
0.240537 -0.16502 0.0455738
0.282538 -0.138153 0.0357091
0.207936 -0.160678 0.0760942
0.317177 -0.105321 0.0278116
0.163485 -0.158252 0.10604
0.412321 -0.0306727 0.0582907
0.111187 -0.0646677 0.133062
0 0 0
0 0 0
0.240648 -0.0480401 0.0425976
0.351919 -0.0787734 0.029431
0.136029 -0.142148 0.112807
0.041102 -0.0116848 0.173998
0.376423 -0.0108512 0.078979
0.0922003 -0.0482906 0.16149
0.392565 -0.0491081 0.0291633
0.108219 -0.128552 0.120791
0.240186 -0.172707 0.0541299
0.264653 -0.161643 0.0320066
0.204477 -0.179201 0.0798769
0.142982 -0.0930304 -0.00452301
-0.0216974 0.00719367 0.164747
0.396389 -0.0231161 0.0575378
0.0957275 -0.0968251 0.132863
0.295605 -0.122329 0.0271524
0.166708 -0.16697 0.105218
0.0772856 -0.0289158 0.188462
0.337207 -0.000659174 0.0914299
0.313754 -0.0790379 0.0288926
0.120276 -0.154862 0.128414
0.0822287 -0.0694993 0.144684
0.401693 0.00930283 0.0862819
0.349251 -0.0510088 0.0390682
0.0998369 -0.137497 0.133318
0 0 0
0 0 0
0.231277 -0.0529778 0.0423245
0.0145995 -0.00575907 0.178472
0.251076 -0.184963 0.0590624
0.378977 -0.0219863 0.0564152
0.0812752 -0.124581 0.132913
0.347928 0.0128441 0.0967535
0.217662 -0.183226 0.0838194
0.272577 -0.167427 0.0376539
0.0639922 -0.0379631 0.174608
0.286838 -0.143313 0.0198986
0.178592 -0.175565 0.106542
0.302707 -0.0948751 0.0278096
0.133154 -0.159611 0.13077
0.37466 0.0198645 0.0967207
0.069742 -0.0887658 0.145166
-0.0391366 0.0088015 0.159193
0.15597 -0.106744 0.000667881
0.0419466 -0.0101157 0.201484
0.288947 -0.0114778 0.0817233
0.311707 -0.0539028 0.0418016
0.0895776 -0.141995 0.151152
0.363865 0.0542106 0.127579
0.0545079 -0.0433216 0.163802
0.34199 -0.0109507 0.0725695
0.0748255 -0.129543 0.144289
0.268303 -0.189608 0.0623099
0.287741 -0.17979 0.0396478
0.236501 -0.193176 0.0897965
0 0 0
0.296726 -0.145792 0.0254449
0.192208 -0.178547 0.111898
0 0 0
0.220862 -0.0803228 0.0398681
-0.00972346 0.0046859 0.174636
0.354107 0.037931 0.116607
0.0609564 -0.117661 0.139263
0.298528 -0.103246 0.0206455
0.144172 -0.166024 0.136973
0.312198 0.005405 0.102113
0.0363562 -0.00751881 0.18205
0.309716 -0.0555431 0.045073
0.103733 -0.14629 0.147461
0.346362 0.0520943 0.132976
0.0487424 -0.0487315 0.15566
0.170877 -0.1301 0.0172135
-0.0586758 0.00980648 0.141826
0.323171 -0.00584478 0.0754544
0.067493 -0.133936 0.153826
0.016972 0.0102513 0.196041
0.267654 -0.0729691 0.0598676
0.297895 -0.200503 0.0607329
0.312966 -0.178889 0.038122
0.255118 -0.19156 0.0879136
0.313796 -0.156819 0.0215878
0.209565 -0.179422 0.114282
0.33633 0.0372456 0.11979
0.0571999 -0.097162 0.148767
0.328325 0.0518564 0.139282
0.0319983 0.0131108 0.166874
0.313118 -0.104508 0.0245111
0.161212 -0.160508 0.129163
0.305456 -0.0591788 0.0423907
0.113688 -0.143204 0.147891
0 0 0
0 0 0
0.22252 -0.120551 0.035546
-0.0301574 0.0097539 0.153967
0.339151 0.0643792 0.148436
0.047507 -0.0470543 0.152703
0.293309 -0.0276302 0.0885067
0.318142 -0.000764502 0.0857809
0.0137348 0.0134978 0.167655
0.0805825 -0.119271 0.149927
0.320485 -0.189476 0.0572122
0.352433 -0.178444 0.0305193
0.27651 -0.193139 0.0868429
0.326714 0.0520897 0.134359
0.344944 -0.146218 0.020702
0.226572 -0.173199 0.101483
0.0338406 -0.0108771 0.155193
0.328889 0.0525172 0.138662
0.0528434 -0.0899968 0.149278
-0.0702113 0.00337056 0.116239
0.334691 -0.0987881 0.0134203
0.177422 -0.153381 0.117505
0.183405 -0.172838 0.0181686
-0.00871432 0.0155873 0.161761
0.268144 -0.106295 0.0469342
0.322253 -0.0480046 0.0441728
0.130236 -0.133319 0.134427
0.33275 0.0676628 0.140884
0.0492249 -0.0556796 0.154141
0.309115 0.0168869 0.107943
0.0146832 0.015042 0.145945
0.315051 0.00944836 0.0866166
0.0883057 -0.109949 0.148712
0 0 0
0 0 0
0.330265 0.0752364 0.141777
0.0411739 -0.0246069 0.155248
0.355102 -0.185818 0.0507535
0.224474 -0.15171 0.0246302
0.298569 -0.180185 0.0684982
0.37621 -0.167501 0.0286891
-0.0419779 0.00544303 0.132141
0.32376 0.0511301 0.121948
0.0689941 -0.088431 0.154064
0.378857 -0.150822 0.0172805
0.24279 -0.166854 0.0873036
0.282945 -0.0577115 0.0602897
0.000439954 0.00667831 0.148239
0.361368 -0.0923168 0.0174578
0.19095 -0.146643 0.106317
0.333814 -0.0434999 0.0342639
0.141527 -0.126741 0.123601
0.332694 0.0785186 0.13466
0.0553752 -0.0610605 0.159337
0.315835 0.0312472 0.102004
0.0298493 -0.0139585 0.150384
0.186013 -0.200518 0.00787433
-0.0707597 -0.00141078 0.105057
0.324728 0.0154313 0.0796277
0.106959 -0.108678 0.141861
-0.0182262 0.00422507 0.145507
0.260333 -0.127189 0.0255436
0.333545 0.0706383 0.120015
0.05145 -0.051164 0.161927
0.37601 -0.168362 0.0292961
0.294187 -0.0142491 0.0607374
0.0140171 -0.00814105 0.13974
0.318405 0.0640365 0.127852
0.418447 -0.154919 0.0162029
0.319874 -0.17493 0.0490929
0.079452 -0.0927176 0.15893
0.410799 -0.122708 0.00755651
0.258155 -0.161991 0.0727184
0.398111 -0.0761577 0.00486642
0.202064 -0.139594 0.0968598
0.329773 0.0471144 0.0975584
0.0495231 -0.0381281 0.160603
0 0 0
0.33214 0.0752434 0.11756
0 0 0
0.065631 -0.084723 0.164483
0.224405 -0.167208 -0.000867608
0.360037 -0.0228446 0.0359551
0.153432 -0.128828 0.112153
-0.0451014 -0.00620714 0.12558
0.272626 -0.0722852 0.0119864
-0.00370739 -0.0233973 0.143111
0.331641 0.0317402 0.0697789
0.11855 -0.105303 0.136203
0.341448 0.081684 0.106064
0.0597279 -0.0808605 0.172521
0.303611 0.0210378 0.0378316
0.0204484 -0.0575629 0.151051
0.330304 0.0609591 0.0922582
0.0831836 -0.107887 0.151272
0.410617 -0.15778 0.00113528
0.433964 -0.135124 -0.00657649
0.339848 -0.16718 0.0287087
0.447779 -0.108932 -0.0081238
0.267893 -0.166585 0.0576173
-0.070326 -0.0065979 0.106092
0.194317 -0.203997 -0.00137267
-0.0210936 -0.021045 0.145663
0.256957 -0.137128 -0.0355157
0.330696 0.0693159 0.0588893
0.421389 -0.0580429 0.00336214
0.205436 -0.155931 0.072249
0.0315161 -0.095192 0.162201
0.336014 0.0767347 0.101663
0.0679688 -0.104253 0.167146
0.279026 -0.0105753 -0.00281954
0.376584 -0.00346107 0.0349111
0.151588 -0.143672 0.091947
0.0104731 -0.0686283 0.141535
0.351816 0.0432249 0.0528813
0.0988842 -0.133979 0.117649
0.340752 0.0837034 0.0702045
0.0363027 -0.122748 0.15795
0.311458 0.0618611 -0.00414995
0.00778051 -0.115354 0.162327
0 0 0
0 0 0
0.241016 -0.143803 -0.0503112
-0.0486822 -0.0161804 0.136329
0.335156 0.071325 0.0697395
0.0667631 -0.129272 0.14281
0.282729 -0.0618164 -0.0678526
0.420392 -0.145871 -0.0186975
-0.0173117 -0.0553704 0.154105
0.459014 -0.118864 -0.0355204
0.361008 -0.169423 0.00698946
0.464352 -0.0823535 -0.0289748
0.277239 -0.172962 0.026148
0.340107 0.0866042 0.0360842
0.00903292 -0.146425 0.153353
0.463081 -0.0436209 -0.0182051
0.2002 -0.173873 0.042572
0.307047 0.0235068 -0.0528992
0.34038 0.0847909 0.0600876
0.0341235 -0.139932 0.137116
-0.00814305 -0.100748 0.156643
0.418667 0.0148379 0.00664437
0.118386 -0.161206 0.0759242
0.224487 -0.144357 -0.0491805
-0.0726557 0.00306577 0.129551
0.330909 0.0674845 -0.0317346
-0.00877988 -0.136476 0.151657
-0.0306535 -0.0401447 0.164011
0.288302 -0.0897307 -0.115176
0.345439 0.0897908 0.0370065
0.363882 0.0732954 0.037096
0.0586357 -0.157667 0.099635
0.00848106 -0.159453 0.138779
0.30663 -0.00983205 -0.117899
-0.027973 -0.0916637 0.165213
0.351157 0.0894984 0.0411103
0.0223941 -0.153924 0.101952
0.450928 -0.137418 -0.0473945
0.344897 0.0812355 -0.0105086
0.378129 -0.158532 -0.0269854
0.472087 -0.0993385 -0.051214
-0.016862 -0.156187 0.129648
0.487532 -0.0579973 -0.05405
0.279852 -0.181965 -0.00258682
-0.0228528 -0.127346 0.157498
0.331075 0.0525734 -0.086728
0.344913 0.101313 0.0319414
-0.00671888 -0.166751 0.0997292
0 0 0
0.479783 -0.0196068 -0.0420917
0.168086 -0.177145 0.0271332
0 0 0
0.272368 -0.0848432 -0.104636
-0.0765879 0.00794226 0.158526
0.471121 0.0331384 -0.0272244
0.0631206 -0.169611 0.0695428
0.318543 -0.0298061 -0.163043
-0.0467516 -0.0276877 0.179706
0.340998 0.0688991 -0.0721448
-0.0290802 -0.156778 0.13345
0.35027 0.0912011 -0.00311362
-0.0341735 -0.160693 0.0969062
0.412203 0.07765 0.00599919
0.0128254 -0.161319 0.0661545
0.336162 0.0236118 -0.16187
-0.0412321 -0.0616187 0.167427
0.360678 0.11206 0.0256642
-0.0291038 -0.162004 0.0656352
-0.134731 0.0473967 0.139182
0.246608 -0.0705756 -0.0592854
0.353043 0.0796481 -0.0429804
-0.0558819 -0.162093 0.0930111
0.349901 0.0524601 -0.142643
-0.0434579 -0.0830413 0.143389
0.462904 -0.11849 -0.0627119
-0.0683118 0.0214512 0.201359
0.330076 -0.0347101 -0.194902
0.490874 -0.083075 -0.067891
0.420728 -0.145322 -0.0649498
0.495455 -0.0509095 -0.0684439
0.28519 -0.1699 -0.0325377
0.361545 0.106095 0.000830744
-0.0563583 -0.15803 0.0594489
0.497396 -0.00994727 -0.0688874
0.349163 0.0150487 -0.224197
0.129172 -0.183131 -0.000995278
-0.060068 -0.00039372 0.188241
0.361326 0.0636812 -0.11587
0.476215 0.0398923 -0.0371447
0.0326641 -0.166067 0.0281059
-0.0597245 -0.087391 0.108115
0.357687 0.0940524 -0.038422
-0.0825744 -0.154477 0.0561053
0.357781 0.0366573 -0.218657
-0.0540348 -0.0270718 0.158756
0.453133 0.0921062 -0.011539
-0.0413512 -0.155992 0.0298049
0 0 0
0.123304 0 -0.0296427
-0.130448 0.0357343 0.156538
0.288342 0 -0.127094
-0.0834143 0.034034 0.200158
0.339619 0 -0.209549
0.408122 0.106679 -0.00729344
-0.075312 -0.150744 0.0227095
0.369751 0.0517106 -0.193043
-0.067864 -0.0209696 0.123854
0.370031 0.0703217 -0.0924599
-0.082718 -0.0836279 0.0680731
0.489088 -0.108144 -0.0706123
-0.0683234 0.0174332 0.178861
0.353472 0 -0.221427
0.498907 -0.0799068 -0.076352
0.420907 -0.141188 -0.0681526
0.506017 -0.0526187 -0.0829473
0.311007 -0.169182 -0.0616189
0.382904 0.116953 -0.0158607
-0.107036 -0.148889 0.0163258
0.492371 -0.00602945 -0.0656039
0.137622 -0.16514 -0.0192818
-0.0860717 -0.0097236 0.0821457
0.381512 0.0544668 -0.155311
-0.0687524 0.0147844 0.140527
0.363766 0 -0.20585
0.48321 0.0442721 -0.0409279
-0.0202853 -0.155533 0.0140713
-0.201273 0.0133199 0.0780146
0.382644 0.0805108 -0.0692525
-0.105499 -0.0821237 0.0307076
-0.117475 0.0607693 0.207597
0.455479 0.0798834 -0.0247722
-0.0707396 -0.144085 -0.00540047
-0.0878029 0.0543094 0.203436
-0.084658 0.0265587 0.0966263
0.375631 0 -0.174177
0.387881 0.0531197 -0.133126
-0.106344 -0.00821787 0.0410304
0.435774 0.105598 -0.0274383
-0.123757 -0.136089 -0.0209278
-0.071388 0.0428887 0.165012
0.491589 -0.106521 -0.0792874
0.50965 -0.0757893 -0.0839574
0.462803 -0.142102 -0.0754293
0.410306 0.0863166 -0.0433734
-0.129306 -0.0826208 -0.0052008
0 0 0
0.498291 -0.0424211 -0.0790106
0.32948 -0.148406 -0.0621185
-0.180492 0.0226906 0.132997
-0.1036 0.0337283 0.0575476
0.384696 0 -0.144219
0.482862 -0.00582395 -0.069653
0.130595 -0.152712 -0.0285845
-0.0817228 0.06429 0.114488
-0.137378 0.0571983 0.192738
0.464391 0.035633 -0.0383769
-0.00597812 -0.14153 -0.0240332
0.402104 0.0579175 -0.0896009
-0.126043 -0.0169107 0.00936887
-0.115422 0.0680206 0.174645
0.4498 0.0775571 -0.0191837
-0.097565 -0.128724 -0.0445503
-0.102973 0.0726379 0.0660175
-0.124562 0.0397858 0.0234435
0.394992 0 -0.111364
-0.107788 0.0868564 0.134059
0.430737 0.0713509 -0.018361
-0.139833 -0.087291 -0.033592
-0.222059 -0.0291941 0.066417
-0.181161 0.0458674 0.179959
0.504816 -0.100049 -0.0871506
0.420442 0.0647971 -0.0405938
-0.160387 -0.0285945 -0.0255701
-0.163073 0.0678472 0.17996
0.468181 -0.121863 -0.0829443
0.502273 -0.0677671 -0.0857181
-0.118337 0.10511 0.091076
0.413516 -0.129626 -0.0828415
-0.119011 0.0802167 0.0409967
0.494637 -0.0354524 -0.0794847
0.463961 -0.00533165 -0.0509605
0.190194 -0.13298 -0.0477323
-0.139424 0.107037 0.150173
-0.15309 0.0417345 -0.00842222
0.411273 0 -0.0650974
0.441692 0.0265269 -0.023743
-0.036657 -0.12915 -0.0370692
0 0 0
0.425669 0.0401387 0.00281642
-0.103404 -0.101338 -0.0439882
-0.135346 0.119634 0.0521476
-0.204668 -0.00108223 0.109986
-0.138619 0.13321 0.106564
-0.183044 0.0506062 0.158694
-0.146853 0.104055 0.00237798
0.416934 0.0374514 0.0137717
-0.177624 -0.0557566 -0.0433198
-0.167996 0.0897838 0.147248
-0.150032 0.150301 0.0772345
-0.178625 0.0289622 -0.0249521
0.418688 0 -0.0134111
0.5004 -0.0879156 -0.0907695
-0.153624 0.136593 0.0139694
0.499991 -0.0597782 -0.0922799
0.491588 -0.115673 -0.0863559
0.466751 -0.033513 -0.0614123
0.406716 -0.117459 -0.0719542
-0.159629 0.127764 0.115152
-0.214207 -0.0388637 0.0589058
0.436653 -0.00657717 -0.0309611
0.253321 -0.120432 -0.0424339
-0.201245 0.0178615 0.134661
-0.179078 0.108388 -0.0198656
0.411741 0.0117849 0.00830171
0.0490492 -0.110524 -0.0440858
-0.186696 0.0708488 0.140197
-0.169368 0.175382 0.0243417
-0.157686 0.156866 0.0778263
0.39425 0.0190197 0.0404207
-0.101769 -0.0917215 -0.0510134
-0.171823 0.144502 -0.012415
-0.182791 0.113402 0.118662
-0.161925 -0.0143129 -0.0273395
0.405592 0 0.0270962
-0.159982 0.177594 0.0396843
0 0 0
-0.180409 -0.00669265 0.0722645
-0.177681 0.157408 0.085211
-0.179265 0.186719 -0.0118389
-0.197413 0.0918118 -0.0110529
0.505203 -0.0761622 -0.0972918
-0.153325 0.0442247 0.0868666
0.469752 -0.0532505 -0.0723701
0.492837 -0.0953861 -0.0886864
0.435722 -0.0322441 -0.0429237
0.468439 -0.104104 -0.0761855
0.402248 -0.00728128 0.00396965
0.308085 -0.101513 -0.0555142
-0.146427 0.0870344 0.0846712
-0.184409 0.131814 -0.0088241
0.374371 0.00817007 0.0474903
0.0813013 -0.100793 -0.0458269
-0.164413 0.186547 0.0422959
-0.163915 0.18902 0.00371334
-0.0488545 -0.0658455 -0.0303035
-0.140457 0.125906 0.0634653
0.38431 0 0.0439555
-0.182097 0.178846 -0.0203335
-0.188183 -0.0265065 0.0646942
-0.170894 -0.00158547 -0.00397183
-0.118002 0.0207381 0.0307964
-0.156115 0.198145 0.0148653
-0.130476 0.157246 0.0361489
-0.107358 0.0674505 0.0418109
-0.163007 0.173265 -0.00544919
-0.175742 0.0638587 0.01883
0.475154 -0.0637521 -0.0778609
0.438093 -0.0448176 -0.0569851
0.506116 -0.0856049 -0.0949122
-0.108865 0.096436 0.0380145
0.397363 -0.0201134 -0.00679348
0.476366 -0.089888 -0.0773647
0.429279 -0.0807248 -0.0576106
-0.179047 0.148209 0.0159557
0.362246 0.0015261 0.0422732
-0.123742 0.169768 0.0157183
-0.150914 0.195835 -0.0125147
0.219249 -0.0810256 -0.039884
0 0 0
0.368308 0 0.0448817
-0.0924891 0.136379 0.0119737
-0.117958 0.0204109 0.0161653
-0.0554926 0.0646256 -0.0100343
-0.00405598 -0.0692821 -0.0204021
-0.158405 0.130117 0.0295148
-0.0397436 0.08822 -0.00381128
-0.120712 0.157123 0.0127418
-0.0852507 -0.0243235 0.0233219
-0.0873221 0.148652 0.00511484
-0.139753 0.131662 0.0228904
-0.0395649 0.107856 -0.00728426
-0.155612 0.0169994 0.0743892
0.451205 -0.0484235 -0.0622547
-0.144811 0.0110777 0.0291335
0.480824 -0.0673823 -0.0763329
0.397945 -0.027369 -0.0176305
0.353391 -0.00491773 0.0304618
0.501629 -0.0891185 -0.0807503
-0.0208373 0.0763344 -0.0599628
-0.0871202 0.145729 0.000597276
-0.141776 0.0510689 0.0755256
0.449559 -0.0828354 -0.0609665
-0.119239 0.112556 0.0388086
-0.0471157 0.122656 -0.00683546
0.357818 0 0.0363675
0.0242268 0.0939792 -0.0527816
0.37047 -0.0733025 -0.0356963
-0.132722 0.0617519 0.0995465
0.0330214 0.0950142 -0.042289
0.177021 -0.0633631 -0.008428
-0.0578314 0.119119 0.0106581
-0.0886991 0.0887844 0.0480196
-0.0104398 -0.0434258 0.0432723
0.0100727 0.103593 -0.0368363
0 0 0
-0.117831 0.0540632 0.0874245
-0.0368334 0.0650274 -0.067866
-0.0569269 -0.0236853 0.0744076
0.0560587 0.115173 -0.103972
-0.0666907 0.0905246 0.0453908
0.404309 -0.0305939 -0.0266402
0.0809758 0.116631 -0.076106
0.34909 -0.0113172 0.0182562
0.464346 -0.0463822 -0.0674142
-0.0187244 0.102002 -0.00759408
0.484171 -0.0675957 -0.0704019
0.35124 0 0.024359
-0.0997232 -0.0226847 0.112211
-0.097588 0.0339428 0.0968392
0.496856 -0.0881959 -0.0698086
0.0740144 0.104173 -0.0493544
0.429861 -0.0794341 -0.0459916
-0.0979697 -0.00428137 0.116473
-0.038159 0.0800923 0.0445144
-0.072201 0.0298841 -0.0687234
0.352109 -0.0674419 -0.020886
-0.075376 0.0433122 0.0894287
0.090516 0.142813 -0.171911
0.0352729 0.0941802 -0.0175375
0.186799 -0.055408 0.0226495
0.130329 0.147566 -0.131232
-0.101259 -0.011104 0.130422
0.0380678 -0.0456301 0.067758
0.136326 0.129963 -0.0781208
-0.0527844 0.0474922 0.0884318
-0.00606558 0.0859431 0.0284487
0.352594 -0.0162526 0.00485193
0.412385 -0.0330612 -0.0323218
-0.0760232 0.00167915 0.122601
0.350842 0 0.011554
0.00290762 -0.0404858 0.0938388
0.473851 -0.0466862 -0.0636346
0.116638 0.0881203 -0.0401715
0 0 0
0.0541901 0.0920692 -0.177981
0.488328 -0.0684501 -0.0626713
0.16234 0.135978 -0.188687
0.50001 -0.0887962 -0.0575756
-0.0268708 0.0632928 0.0772186
-0.0581743 -0.0450886 0.123714
0.0331058 0.0830056 0.0144519
-0.0624324 0.00302963 0.124424
0.184355 0.123785 -0.130112
0.43196 -0.0781469 -0.0305088
0.36746 -0.0651344 0.000453806
-0.04695 -0.0274019 0.127525
0.183021 0.0889901 -0.0676405
-0.000484688 0.0786723 0.0624224
0.236416 -0.0583595 0.0361034
-0.0334998 0.0281988 0.116707
0.00135118 0.0637598 -0.219913
0.197094 0.13182 -0.251378
0.130008 0.0699054 -0.0119743
-0.0428132 -0.0191518 0.138719
0.355671 0 0.000880788
0.231421 0.121712 -0.200227
0.13146 -0.0485397 0.071672
0.358747 -0.0229237 -0.00309035
0.420224 -0.0370718 -0.0349201
0.482596 -0.0501223 -0.0596666
-0.016055 0.0469145 0.113506
0.239342 0.0958978 -0.110866
0.0534932 0.0807384 0.0447124
0.49619 -0.0705331 -0.0547797
0.073018 -0.0422137 0.0954226
-0.0199906 -0.0015437 0.135221
0.508262 -0.091215 -0.0440276
0.239778 0.041979 -0.0414037
0 0 0
0.452092 -0.0804662 -0.019317
0.143618 0.0723273 -0.251536
0.014447 -0.0342632 0.117245
0.268558 0.0686851 -0.226585
0.0202598 0.0762445 0.0947974
-0.00272733 0.0153589 0.140466
0.408676 -0.0741337 0.0045299
0.130511 0.0665166 0.019226